
    -----------------------------------------------------------------------
          Psi4: An Open-Source Ab Initio Electronic Structure Package
                               Psi4 1.4a2.dev78 

                         Git: Rev {master} e512d40 


    R. M. Parrish, L. A. Burns, D. G. A. Smith, A. C. Simmonett,
    A. E. DePrince III, E. G. Hohenstein, U. Bozkaya, A. Yu. Sokolov,
    R. Di Remigio, R. M. Richard, J. F. Gonthier, A. M. James,
    H. R. McAlexander, A. Kumar, M. Saitow, X. Wang, B. P. Pritchard,
    P. Verma, H. F. Schaefer III, K. Patkowski, R. A. King, E. F. Valeev,
    F. A. Evangelista, J. M. Turney, T. D. Crawford, and C. D. Sherrill,
    J. Chem. Theory Comput. 13(7) pp 3185--3197 (2017).
    (doi: 10.1021/acs.jctc.7b00174)


                         Additional Contributions by
    P. Kraus, H. Kruse, M. H. Lechner, M. C. Schieber, R. A. Shaw,
    A. Alenaizan, R. Galvelis, Z. L. Glick, S. Lehtola, and J. P. Misiewicz

    -----------------------------------------------------------------------


    Psi4 started on: Monday, 28 February 2022 03:14AM

    Process ID: 3461600
    Host:       node75.bme.utexas.edu
    PSIDATADIR: /home/jtg2769/poltype/miniconda3/envs/p4env/share/psi4
    Memory:     500.0 MiB
    Threads:    1
    
  ==> Input File <==

--------------------------------------------------------------------------
memory 50 GB
set basis def2-QZVPD
set soscf true
set fail_on_maxiter false
molecule{
	3 1
	La -0.038392 -0.277582 0.000000
	--
	0 1
	O 0.258567 1.876707 0.000000
	H 0.349878 2.466609 0.761699
	H 0.349878 2.466609 -0.761699
}

energy(cbs, corl_wfn='mp2',corl_basis='def2-[TQ]ZVPD', delta_wfn='ccsd(t)', delta_basis='def2-[DT]ZVPD')
--------------------------------------------------------------------------

  Memory set to  46.566 GiB by Python driver.

  //>>>>>>>>>>>>>>>>>>>>>>>>>>>>>>>>>>>//
  //     CBS Setup: custom function    //
  //<<<<<<<<<<<<<<<<<<<<<<<<<<<<<<<<<<<//

    Naive listing of computations required.
             hf / def2-qzvpd               for  HF TOTAL ENERGY
            mp2 / def2-tzvpd               for  MP2 TOTAL ENERGY
            mp2 / def2-qzvpd               for  MP2 TOTAL ENERGY
             hf / def2-tzvpd               for  HF TOTAL ENERGY
             hf / def2-qzvpd               for  HF TOTAL ENERGY
        ccsd(t) / def2-svpd                for  CCSD(T) TOTAL ENERGY
        ccsd(t) / def2-tzvpd               for  CCSD(T) TOTAL ENERGY
            mp2 / def2-svpd                for  MP2 TOTAL ENERGY
            mp2 / def2-tzvpd               for  MP2 TOTAL ENERGY

    Enlightened listing of computations required.
            mp2 / def2-qzvpd               for  MP2 TOTAL ENERGY
        ccsd(t) / def2-svpd                for  CCSD(T) TOTAL ENERGY
        ccsd(t) / def2-tzvpd               for  CCSD(T) TOTAL ENERGY

    Full listing of computations to be obtained (required and bonus).
             hf / def2-qzvpd               for  HF TOTAL ENERGY
            mp2 / def2-qzvpd               for  MP2 TOTAL ENERGY
             hf / def2-svpd                for  HF TOTAL ENERGY
            mp2 / def2-svpd                for  MP2 TOTAL ENERGY
           ccsd / def2-svpd                for  CCSD TOTAL ENERGY
        ccsd(t) / def2-svpd                for  CCSD(T) TOTAL ENERGY
             hf / def2-tzvpd               for  HF TOTAL ENERGY
            mp2 / def2-tzvpd               for  MP2 TOTAL ENERGY
           ccsd / def2-tzvpd               for  CCSD TOTAL ENERGY
        ccsd(t) / def2-tzvpd               for  CCSD(T) TOTAL ENERGY

  //>>>>>>>>>>>>>>>>>>>>>>>>>>>>>>>>>>>//
  // CBS Computation: MP2 / DEF2-QZVPD //
  //<<<<<<<<<<<<<<<<<<<<<<<<<<<<<<<<<<<//

    SCF Algorithm Type (re)set to DF.

*** tstart() called on node75.bme.utexas.edu
*** at Mon Feb 28 03:14:33 2022

   => Loading Basis Set <=

    Name: DEF2-QZVPD
    Role: ORBITAL
    Keyword: BASIS
    atoms 1   entry LA         line  3634 (ECP: line  5113) file /home/jtg2769/poltype/miniconda3/envs/p4env/share/psi4/basis/def2-qzvpd.gbs 
    atoms 2   entry O          line   305 file /home/jtg2769/poltype/miniconda3/envs/p4env/share/psi4/basis/def2-qzvpd.gbs 
    atoms 3-4 entry H          line    14 file /home/jtg2769/poltype/miniconda3/envs/p4env/share/psi4/basis/def2-qzvpd.gbs 

    !!!  WARNING: ECP capability is in beta. Please check occupations closely.  !!!


         ---------------------------------------------------------
                                   SCF
               by Justin Turney, Rob Parrish, Andy Simmonett
                          and Daniel G. A. Smith
                              RHF Reference
                        1 Threads,  47683 MiB Core
         ---------------------------------------------------------

  ==> Geometry <==

    Molecular point group: cs
    Full point group: Cs

    Geometry (in Angstrom), charge = 3, multiplicity = 1:

       Center              X                  Y                   Z               Mass       
    ------------   -----------------  -----------------  -----------------  -----------------
         LA          -0.035257193847    -0.254841843290     0.000000000000   138.906356300000
         O            0.261701806153     1.899447156710     0.000000000000    15.994914619570
         H            0.353012806153     2.489349156710     0.761699000000     1.007825032230
         H            0.353012806153     2.489349156710    -0.761699000000     1.007825032230

  Running in cs symmetry.

  Rotational constants: A =     14.41298  B =      0.20879  C =      0.20581 [cm^-1]
  Rotational constants: A = 432090.20992  B =   6259.39741  C =   6170.04127 [MHz]
  Nuclear repulsion =   34.560606801645655

  Charge       = 3
  Multiplicity = 1
  Electrons    = 18
  Nalpha       = 9
  Nbeta        = 9

  ==> Algorithm <==

  SCF Algorithm Type is DF.
  DIIS enabled.
  MOM disabled.
  Fractional occupation disabled.
  Guess Type is SAD.
  Energy threshold   = 1.00e-08
  Density threshold  = 1.00e-08
  Integral threshold = 0.00e+00

  ==> Primary Basis <==

  Basis Set: DEF2-QZVPD
    Blend: DEF2-QZVPD
    Number of shells: 62
    Number of basis function: 204
    Number of Cartesian functions: 249
    Spherical Harmonics?: true
    Max angular momentum: 4

  Core potential: DEF2-QZVPD
    Number of shells: 4
    Number of ECP primitives: 10
    Number of ECP core electrons: 46
    Max angular momentum: 3

   => Loading Basis Set <=

    Name: (DEF2-QZVPD AUX)
    Role: JKFIT
    Keyword: DF_BASIS_SCF
    atoms 1   entry LA         line  5333 file /home/jtg2769/poltype/miniconda3/envs/p4env/share/psi4/basis/def2-qzvp-jkfit.gbs 
    atoms 2   entry O          line   323 file /home/jtg2769/poltype/miniconda3/envs/p4env/share/psi4/basis/def2-qzvp-jkfit.gbs 
    atoms 3-4 entry H          line    23 file /home/jtg2769/poltype/miniconda3/envs/p4env/share/psi4/basis/def2-qzvp-jkfit.gbs 

  ==> Pre-Iterations <==

   -------------------------------------------------------
    Irrep   Nso     Nmo     Nalpha   Nbeta   Ndocc  Nsocc
   -------------------------------------------------------
     A'       122     122       0       0       0       0
     A"        82      82       0       0       0       0
   -------------------------------------------------------
    Total     204     204       9       9       9       0
   -------------------------------------------------------

  ==> Integral Setup <==

  DFHelper Memory: AOs need 0.118 GiB; user supplied 34.925 GiB. Using in-core AOs.

  ==> MemDFJK: Density-Fitted J/K Matrices <==

    J tasked:                   Yes
    K tasked:                   Yes
    wK tasked:                   No
    OpenMP threads:               1
    Memory [MiB]:             35762
    Algorithm:                 Core
    Schwarz Cutoff:           1E-12
    Mask sparsity (%):       0.1922
    Fitting Condition:        1E-10

   => Auxiliary Basis Set <=

  Basis Set: (DEF2-QZVPD AUX)
    Blend: DEF2-QZVP-JKFIT
    Number of shells: 82
    Number of basis function: 340
    Number of Cartesian functions: 474
    Spherical Harmonics?: true
    Max angular momentum: 6

  Minimum eigenvalue in the overlap matrix is 3.0052995989E-05.
  Using Symmetric Orthogonalization.

  SCF Guess: Superposition of Atomic Densities via on-the-fly atomic UHF.

  ==> Iterations <==

                           Total Energy        Delta E     RMS |[F,P]|

   @DF-RHF iter SAD:  -106.76268027803414   -1.06763e+02   0.00000e+00 
   @DF-RHF iter   1:  -105.97516964686166    7.87511e-01   2.90280e-03 DIIS
   @DF-RHF iter   2:  -106.04358778921505   -6.84181e-02   1.45277e-03 DIIS
   @DF-RHF iter   3:  -106.05852224329175   -1.49345e-02   3.09647e-04 SOSCF, nmicro=5
   @DF-RHF iter   4:  -106.05977421680194   -1.25197e-03   3.90823e-06 SOSCF, nmicro=5
   @DF-RHF iter   5:  -106.05977455441054   -3.37609e-07   5.06402e-08 SOSCF, nmicro=5
   @DF-RHF iter   6:  -106.05977455444007   -2.95302e-11   6.74576e-10 SOSCF, nmicro=conv
  Energy and wave function converged.


  ==> Post-Iterations <==

    Orbital Energies [Eh]
    ---------------------

    Doubly Occupied:                                                      

       1Ap   -21.242266     2Ap    -2.565364     3Ap    -2.053558  
       1App   -1.766084     4Ap    -1.764495     5Ap    -1.762287  
       2App   -1.392332     6Ap    -1.301977     7Ap    -1.205336  

    Virtual:                                                              

       8Ap    -0.584519     3App   -0.584041     4App   -0.572607  
       9Ap    -0.566834    10Ap    -0.558144    11Ap    -0.496518  
       5App   -0.441955    12Ap    -0.434945    13Ap    -0.415646  
       6App   -0.327326    14Ap    -0.308241    15Ap    -0.301470  
      16Ap    -0.296660     7App   -0.295958    17Ap    -0.294283  
      18Ap    -0.268834    19Ap    -0.262399     8App   -0.261475  
      20Ap    -0.255034     9App   -0.254364    10App   -0.245122  
      21Ap    -0.236362    11App   -0.233133    22Ap    -0.231699  
      23Ap    -0.229379    12App   -0.203919    24Ap    -0.182971  
      25Ap    -0.171678    26Ap    -0.150514    13App   -0.143017  
      27Ap    -0.133908    14App   -0.132230    28Ap    -0.113304  
      29Ap    -0.107739    30Ap    -0.105054    15App   -0.104432  
      16App   -0.101800    31Ap    -0.096056    32Ap    -0.081147  
      17App   -0.070314    33Ap    -0.036964    18App   -0.034420  
      34Ap    -0.012068    19App   -0.003691    35Ap     0.028310  
      20App    0.032498    36Ap     0.037887    37Ap     0.092106  
      38Ap     0.109382    21App    0.113642    39Ap     0.118891  
      40Ap     0.156623    22App    0.159546    41Ap     0.160083  
      42Ap     0.167241    23App    0.170636    24App    0.187837  
      25App    0.195722    43Ap     0.195925    44Ap     0.212770  
      45Ap     0.216541    26App    0.218258    46Ap     0.245764  
      47Ap     0.253382    27App    0.296422    28App    0.318211  
      48Ap     0.341932    29App    0.381657    49Ap     0.383525  
      50Ap     0.409270    30App    0.429182    51Ap     0.481657  
      52Ap     0.495329    31App    0.545121    53Ap     0.587843  
      32App    0.589302    33App    0.590904    54Ap     0.615469  
      55Ap     0.649917    56Ap     0.657193    34App    0.660891  
      57Ap     0.743971    58Ap     0.781987    59Ap     0.830624  
      35App    0.840177    60Ap     0.951072    36App    0.993854  
      37App    1.025291    61Ap     1.031031    62Ap     1.098264  
      38App    1.101583    63Ap     1.130062    39App    1.140314  
      40App    1.170891    64Ap     1.181660    65Ap     1.194828  
      66Ap     1.335242    67Ap     1.368353    41App    1.442419  
      68Ap     1.570440    42App    1.692635    69Ap     1.751019  
      70Ap     1.792369    71Ap     1.832921    43App    1.931629  
      44App    1.967527    45App    2.108471    72Ap     2.127597  
      46App    2.159303    73Ap     2.315810    47App    2.373680  
      74Ap     2.409167    75Ap     2.449850    48App    2.491293  
      76Ap     2.716219    49App    2.766861    50App    2.987218  
      77Ap     3.000217    78Ap     3.194988    79Ap     3.341542  
      51App    3.544566    80Ap     3.600203    81Ap     3.626532  
      52App    3.732961    82Ap     3.936116    83Ap     4.013650  
      53App    4.157094    84Ap     4.162755    54App    4.225146  
      55App    4.521035    85Ap     4.686266    86Ap     5.124001  
      87Ap     5.230872    56App    5.240535    88Ap     5.364759  
      57App    5.621498    89Ap     5.700588    58App    5.733583  
      59App    6.111671    90Ap     6.174702    60App    6.513124  
      91Ap     6.685306    61App    6.957204    92Ap     6.997267  
      62App    7.062096    93Ap     7.105868    63App    7.117513  
      64App    7.224571    94Ap     7.326975    95Ap     7.436836  
      96Ap     7.464019    65App    7.608628    97Ap     7.640467  
      98Ap     7.660524    66App    7.696955    67App    7.739213  
      99Ap     7.933495    68App    8.045153   100Ap     8.280046  
      69App    8.327627    70App    8.498317   101Ap     8.503354  
     102Ap     8.753700    71App    8.867918   103Ap     9.665423  
     104Ap     9.770038    72App   10.080318   105Ap    10.120334  
      73App   10.552755   106Ap    10.600807    74App   10.746835  
      75App   10.979139   107Ap    10.987750   108Ap    11.195013  
     109Ap    11.374993   110Ap    11.557774    76App   11.642201  
     111Ap    11.655634   112Ap    11.705723    77App   11.740354  
     113Ap    11.758744    78App   12.079619   114Ap    12.176668  
     115Ap    12.721029    79App   12.774956    80App   13.321246  
     116Ap    13.540972   117Ap    13.776665    81App   13.911149  
     118Ap    14.377920   119Ap    16.624214    82App   16.667533  
     120Ap    33.080559   121Ap    49.077382   122Ap   256.240674  

    Final Occupation by Irrep:
             Ap   App 
    DOCC [     7,    2 ]

  @DF-RHF Final Energy:  -106.05977455444007

   => Energetics <=

    Nuclear Repulsion Energy =             34.5606068016456547
    One-Electron Energy =                -211.1333651849377020
    Two-Electron Energy =                  70.5129838288519721
    Total Energy =                       -106.0597745544400681

Computation Completed


Properties will be evaluated at   0.000000,   0.000000,   0.000000 [a0]

Properties computed using the SCF density matrix

  Nuclear Dipole Moment: [e a0]
     X:     4.5577      Y:    32.8265      Z:     0.0000

  Electronic Dipole Moment: [e a0]
     X:    -4.4177      Y:   -31.9252      Z:     0.0000

  Dipole Moment: [e a0]
     X:     0.1400      Y:     0.9013      Z:     0.0000     Total:     0.9121

  Dipole Moment: [D]
     X:     0.3558      Y:     2.2908      Z:     0.0000     Total:     2.3183


*** tstop() called on node75.bme.utexas.edu at Mon Feb 28 03:14:46 2022
Module time:
	user time   =      13.30 seconds =       0.22 minutes
	system time =       0.07 seconds =       0.00 minutes
	total time  =         13 seconds =       0.22 minutes
Total time:
	user time   =      13.30 seconds =       0.22 minutes
	system time =       0.07 seconds =       0.00 minutes
	total time  =         13 seconds =       0.22 minutes

*** tstart() called on node75.bme.utexas.edu
*** at Mon Feb 28 03:14:46 2022


  //>>>>>>>>>>>>>>>>>>>>>>>>>>>>>>>>>>>//
  //               DFMP2               //
  //<<<<<<<<<<<<<<<<<<<<<<<<<<<<<<<<<<<//

   => Loading Basis Set <=

    Name: (DEF2-QZVPD AUX)
    Role: RIFIT
    Keyword: DF_BASIS_MP2
    atoms 1   entry LA         line  5314 file /home/jtg2769/poltype/miniconda3/envs/p4env/share/psi4/basis/def2-qzvpp-ri.gbs 
    atoms 2   entry O          line   406 file /home/jtg2769/poltype/miniconda3/envs/p4env/share/psi4/basis/def2-qzvpp-ri.gbs 
    atoms 3-4 entry H          line    24 file /home/jtg2769/poltype/miniconda3/envs/p4env/share/psi4/basis/def2-qzvpp-ri.gbs 

	 --------------------------------------------------------
	                          DF-MP2                         
	      2nd-Order Density-Fitted Moller-Plesset Theory     
	              RMP2 Wavefunction,   1 Threads             
	                                                         
	        Rob Parrish, Justin Turney, Andy Simmonett,      
	           Ed Hohenstein, and C. David Sherrill          
	 --------------------------------------------------------

   => Auxiliary Basis Set <=

  Basis Set: (DEF2-QZVPD AUX)
    Blend: DEF2-QZVPP-RI
    Number of shells: 111
    Number of basis function: 505
    Number of Cartesian functions: 724
    Spherical Harmonics?: true
    Max angular momentum: 6

	 --------------------------------------------------------
	                 NBF =   204, NAUX =   505
	 --------------------------------------------------------
	   CLASS    FOCC     OCC    AOCC    AVIR     VIR    FVIR
	   PAIRS       0       9       9     195     195       0
	 --------------------------------------------------------

	-----------------------------------------------------------
	 ==================> DF-MP2 Energies <==================== 
	-----------------------------------------------------------
	 Reference Energy          =    -106.0597745544400681 [Eh]
	 Singles Energy            =      -0.0000000000000000 [Eh]
	 Same-Spin Energy          =      -0.1156450397422812 [Eh]
	 Opposite-Spin Energy      =      -0.3629662142750598 [Eh]
	 Correlation Energy        =      -0.4786112540173410 [Eh]
	 Total Energy              =    -106.5383858084574058 [Eh]
	-----------------------------------------------------------
	 ================> DF-SCS-MP2 Energies <================== 
	-----------------------------------------------------------
	 SCS Same-Spin Scale       =       0.3333333333333333 [-]
	 SCS Opposite-Spin Scale   =       1.2000000000000000 [-]
	 SCS Same-Spin Energy      =      -0.0385483465807604 [Eh]
	 SCS Opposite-Spin Energy  =      -0.4355594571300718 [Eh]
	 SCS Correlation Energy    =      -0.4741078037108322 [Eh]
	 SCS Total Energy          =    -106.5338823581509047 [Eh]
	-----------------------------------------------------------


*** tstop() called on node75.bme.utexas.edu at Mon Feb 28 03:14:48 2022
Module time:
	user time   =       1.49 seconds =       0.02 minutes
	system time =       0.04 seconds =       0.00 minutes
	total time  =          2 seconds =       0.03 minutes
Total time:
	user time   =      14.79 seconds =       0.25 minutes
	system time =       0.11 seconds =       0.00 minutes
	total time  =         15 seconds =       0.25 minutes

  //>>>>>>>>>>>>>>>>>>>>>>>>>>>>>>>>>>>>>>//
  // CBS Computation: CCSD(T) / DEF2-SVPD //
  //<<<<<<<<<<<<<<<<<<<<<<<<<<<<<<<<<<<<<<//


*** tstart() called on node75.bme.utexas.edu
*** at Mon Feb 28 03:14:48 2022

   => Loading Basis Set <=

    Name: DEF2-SVPD
    Role: ORBITAL
    Keyword: BASIS
    atoms 1   entry LA         line  2014 (ECP: line  3140) file /home/jtg2769/poltype/miniconda3/envs/p4env/share/psi4/basis/def2-svpd.gbs 
    atoms 2   entry O          line   149 file /home/jtg2769/poltype/miniconda3/envs/p4env/share/psi4/basis/def2-svpd.gbs 
    atoms 3-4 entry H          line    14 file /home/jtg2769/poltype/miniconda3/envs/p4env/share/psi4/basis/def2-svpd.gbs 

    !!!  WARNING: ECP capability is in beta. Please check occupations closely.  !!!


         ---------------------------------------------------------
                                   SCF
               by Justin Turney, Rob Parrish, Andy Simmonett
                          and Daniel G. A. Smith
                              RHF Reference
                        1 Threads,  47683 MiB Core
         ---------------------------------------------------------

  ==> Geometry <==

    Molecular point group: cs
    Full point group: Cs

    Geometry (in Angstrom), charge = 3, multiplicity = 1:

       Center              X                  Y                   Z               Mass       
    ------------   -----------------  -----------------  -----------------  -----------------
         LA          -0.035257193847    -0.254841843290     0.000000000000   138.906356300000
         O            0.261701806153     1.899447156710     0.000000000000    15.994914619570
         H            0.353012806153     2.489349156710     0.761699000000     1.007825032230
         H            0.353012806153     2.489349156710    -0.761699000000     1.007825032230

  Running in cs symmetry.

  Rotational constants: A =     14.41298  B =      0.20879  C =      0.20581 [cm^-1]
  Rotational constants: A = 432090.20992  B =   6259.39741  C =   6170.04127 [MHz]
  Nuclear repulsion =   34.560606801645655

  Charge       = 3
  Multiplicity = 1
  Electrons    = 18
  Nalpha       = 9
  Nbeta        = 9

  ==> Algorithm <==

  SCF Algorithm Type is PK.
  DIIS enabled.
  MOM disabled.
  Fractional occupation disabled.
  Guess Type is SAD.
  Energy threshold   = 1.00e-08
  Density threshold  = 1.00e-08
  Integral threshold = 0.00e+00

  ==> Primary Basis <==

  Basis Set: DEF2-SVPD
    Blend: DEF2-SVPD
    Number of shells: 30
    Number of basis function: 74
    Number of Cartesian functions: 81
    Spherical Harmonics?: true
    Max angular momentum: 3

  Core potential: DEF2-SVPD
    Number of shells: 4
    Number of ECP primitives: 10
    Number of ECP core electrons: 46
    Max angular momentum: 3

  ==> Pre-Iterations <==

   -------------------------------------------------------
    Irrep   Nso     Nmo     Nalpha   Nbeta   Ndocc  Nsocc
   -------------------------------------------------------
     A'        48      48       0       0       0       0
     A"        26      26       0       0       0       0
   -------------------------------------------------------
    Total      74      74       9       9       9       0
   -------------------------------------------------------

  ==> Integral Setup <==

  Using in-core PK algorithm.
   Calculation information:
      Number of atoms:                   4
      Number of AO shells:              30
      Number of primitives:             47
      Number of atomic orbitals:        81
      Number of basis functions:        74

      Integral cutoff                 1.00e-12
      Number of threads:                 1

  Performing in-core PK
  Using 7703400 doubles for integral storage.
  We computed 107383 shell quartets total.
  Whereas there are 108345 unique shell quartets.

  ==> DiskJK: Disk-Based J/K Matrices <==

    J tasked:                  Yes
    K tasked:                  Yes
    wK tasked:                  No
    Memory [MiB]:            35762
    Schwarz Cutoff:          1E-12

    OpenMP threads:              1

  Minimum eigenvalue in the overlap matrix is 3.8573060892E-04.
  Using Symmetric Orthogonalization.

  SCF Guess: Superposition of Atomic Densities via on-the-fly atomic UHF.

  ==> Iterations <==

                        Total Energy        Delta E     RMS |[F,P]|

   @RHF iter SAD:  -106.80304979977801   -1.06803e+02   0.00000e+00 
   @RHF iter   1:  -105.88973933167554    9.13310e-01   7.01780e-03 DIIS
   @RHF iter   2:  -105.94432162265225   -5.45823e-02   3.74506e-03 DIIS
   @RHF iter   3:  -105.95934673871106   -1.50251e-02   6.14483e-04 SOSCF, nmicro=5
   @RHF iter   4:  -105.96008223767537   -7.35499e-04   5.16500e-06 SOSCF, nmicro=5
   @RHF iter   5:  -105.96008231987456   -8.21992e-08   5.35384e-08 SOSCF, nmicro=5
   @RHF iter   6:  -105.96008231988010   -5.54223e-12   5.26403e-10 SOSCF, nmicro=conv
  Energy and wave function converged.


  ==> Post-Iterations <==

    Orbital Energies [Eh]
    ---------------------

    Doubly Occupied:                                                      

       1Ap   -21.246684     2Ap    -2.571018     3Ap    -2.038781  
       1App   -1.770992     4Ap    -1.769201     5Ap    -1.766364  
       2App   -1.396212     6Ap    -1.305112     7Ap    -1.206997  

    Virtual:                                                              

       8Ap    -0.587347     3App   -0.586872     4App   -0.575869  
       9Ap    -0.568541    10Ap    -0.560925    11Ap    -0.496139  
       5App   -0.439452    12Ap    -0.432196    13Ap    -0.411512  
       6App   -0.320875    14Ap    -0.297057    15Ap    -0.291845  
      16Ap    -0.288259    17Ap    -0.285133     7App   -0.284969  
      18Ap    -0.261288     8App   -0.256252    19Ap    -0.249890  
       9App   -0.235907    20Ap    -0.224407    21Ap    -0.215680  
      22Ap    -0.194725    10App   -0.168019    11App   -0.166357  
      23Ap    -0.117265    24Ap    -0.050776    25Ap    -0.048340  
      12App   -0.039798    26Ap    -0.011927    13App   -0.007668  
      14App   -0.003041    27Ap     0.001420    15App    0.046939  
      28Ap     0.059556    16App    0.072045    29Ap     0.093787  
      30Ap     0.128110    17App    0.173305    31Ap     0.186072  
      18App    0.222805    32Ap     0.242440    33Ap     0.253747  
      19App    0.326061    34Ap     0.352672    35Ap     0.386112  
      36Ap     0.420144    37Ap     0.623933    20App    0.828547  
      38Ap     0.874278    21App    1.279933    39Ap     1.350976  
      22App    1.353086    40Ap     1.440756    41Ap     1.517678  
      23App    1.617675    42Ap     1.792259    24App    1.984323  
      43Ap     2.128780    44Ap     2.674898    25App    2.734745  
      45Ap     2.902107    46Ap     3.381848    26App    3.748485  
      47Ap    11.056206    48Ap    32.985561  

    Final Occupation by Irrep:
             Ap   App 
    DOCC [     7,    2 ]

  @RHF Final Energy:  -105.96008231988010

   => Energetics <=

    Nuclear Repulsion Energy =             34.5606068016456547
    One-Electron Energy =                -210.8986580298209788
    Two-Electron Energy =                  70.3779689082952160
    Total Energy =                       -105.9600823198801010

Computation Completed


Properties will be evaluated at   0.000000,   0.000000,   0.000000 [a0]

Properties computed using the SCF density matrix

  Nuclear Dipole Moment: [e a0]
     X:     4.5577      Y:    32.8265      Z:     0.0000

  Electronic Dipole Moment: [e a0]
     X:    -4.4213      Y:   -31.9521      Z:     0.0000

  Dipole Moment: [e a0]
     X:     0.1364      Y:     0.8744      Z:     0.0000     Total:     0.8850

  Dipole Moment: [D]
     X:     0.3467      Y:     2.2224      Z:     0.0000     Total:     2.2493


*** tstop() called on node75.bme.utexas.edu at Mon Feb 28 03:14:51 2022
Module time:
	user time   =       3.20 seconds =       0.05 minutes
	system time =       0.02 seconds =       0.00 minutes
	total time  =          3 seconds =       0.05 minutes
Total time:
	user time   =      17.99 seconds =       0.30 minutes
	system time =       0.13 seconds =       0.00 minutes
	total time  =         18 seconds =       0.30 minutes
 MINTS: Wrapper to libmints.
   by Justin Turney

   Calculation information:
      Number of threads:                 1
      Number of atoms:                   4
      Number of AO shells:              30
      Number of SO shells:              26
      Number of primitives:             47
      Number of atomic orbitals:        81
      Number of basis functions:        74

      Number of irreps:                  2
      Integral cutoff                 0.00e+00
      Number of functions per irrep: [  48   26 ]

 OEINTS: Overlap, kinetic, potential, dipole, and quadrupole integrals
         stored in file 35.

      Computing two-electron integrals...done
      Computed 1873175 non-zero two-electron integrals.
        Stored in file 33.


*** tstart() called on node75.bme.utexas.edu
*** at Mon Feb 28 03:14:53 2022


	Wfn Parameters:
	--------------------
	Wavefunction         = CCSD_T
	Number of irreps     = 2
	Number of MOs        = 74
	Number of active MOs = 74
	AO-Basis             = NONE
	Semicanonical        = false
	Reference            = RHF
	Print Level          = 1

	IRREP	# MOs	# FZDC	# DOCC	# SOCC	# VIRT	# FZVR
	-----	-----	------	------	------	------	------
	 Ap	   48	    0	    7	    0	    41	    0
	 App	   26	    0	    2	    0	    24	    0
	Transforming integrals...
	IWL integrals will be deleted.
	(OO|OO)...
	Presorting SO-basis two-electron integrals.
	Sorting File: SO Ints (nn|nn) nbuckets = 1
	Transforming the one-electron integrals and constructing Fock matrices
	Starting first half-transformation.
	Sorting half-transformed integrals.
	First half integral transformation complete.
	Starting second half-transformation.
	Two-electron integral transformation complete.
	(OO|OV)...
	Starting second half-transformation.
	Two-electron integral transformation complete.
	(OO|VV)...
	Starting second half-transformation.
	Two-electron integral transformation complete.
	(OV|OO)...
	Starting first half-transformation.
	Sorting half-transformed integrals.
	First half integral transformation complete.
	Starting second half-transformation.
	Two-electron integral transformation complete.
	(OV|OV)...
	Starting second half-transformation.
	Two-electron integral transformation complete.
	(OV|VV)...
	Starting second half-transformation.
	Two-electron integral transformation complete.
	(VV|OO)...
	Starting first half-transformation.
	Sorting half-transformed integrals.
	First half integral transformation complete.
	Starting second half-transformation.
	Two-electron integral transformation complete.
	(VV|OV)...
	Starting second half-transformation.
	Two-electron integral transformation complete.
	(VV|VV)...
	Starting second half-transformation.
	Two-electron integral transformation complete.
	Frozen core energy     =      0.00000000000000

	Size of irrep 0 of <ab|cd> integrals:      5.094 (MW) /     40.752 (MB)
	Size of irrep 1 of <ab|cd> integrals:      3.873 (MW) /     30.984 (MB)
	Total:                                     8.967 (MW) /     71.737 (MB)

	Size of irrep 0 of <ia|bc> integrals:      0.756 (MW) /      6.049 (MB)
	Size of irrep 1 of <ia|bc> integrals:      0.492 (MW) /      3.936 (MB)
	Total:                                     1.248 (MW) /      9.985 (MB)

	Size of irrep 0 of tijab amplitudes:       0.120 (MW) /      0.957 (MB)
	Size of irrep 1 of tijab amplitudes:       0.055 (MW) /      0.441 (MB)
	Total:                                     0.175 (MW) /      1.398 (MB)

	Nuclear Rep. energy          =     34.56060680164565
	SCF energy                   =   -105.96008231988010
	One-electron energy          =   -210.89865809056653
	Two-electron energy          =     70.37796896904118
	Reference energy             =   -105.96008231987969

*** tstop() called on node75.bme.utexas.edu at Mon Feb 28 03:14:55 2022
Module time:
	user time   =       0.79 seconds =       0.01 minutes
	system time =       0.40 seconds =       0.01 minutes
	total time  =          2 seconds =       0.03 minutes
Total time:
	user time   =      20.07 seconds =       0.33 minutes
	system time =       0.57 seconds =       0.01 minutes
	total time  =         22 seconds =       0.37 minutes
            **************************
            *                        *
            *        CCENERGY        *
            *                        *
            **************************

    Nuclear Rep. energy (wfn)     =   34.560606801645655
    SCF energy          (wfn)     = -105.960082319880101
    Reference energy    (file100) = -105.960082319879689

    Input parameters:
    -----------------
    Wave function   =     CCSD_T
    Reference wfn   =     RHF
    Brueckner       =     No
    Memory (Mbytes) =     50000.0
    Maxiter         =     50
    R_Convergence   =     1.0e-07
    E_Convergence   =     1.0e-06
    Restart         =     Yes
    DIIS            =     Yes
    AO Basis        =     NONE
    ABCD            =     NEW
    Cache Level     =     2
    Cache Type      =     LOW
    Print Level     =     1
    Num. of threads =     1
    # Amps to Print =     10
    Print MP2 Amps? =     No
    Analyze T2 Amps =     No
    Print Pair Ener =     No
    Local CC        =     No
    SCS-MP2         =     False
    SCSN-MP2        =     False
    SCS-CCSD        =     False

MP2 correlation energy -0.3081147815831948
                Solving CC Amplitude Equations
                ------------------------------
  Iter             Energy              RMS        T1Diag      D1Diag    New D1Diag    D2Diag
  ----     ---------------------    ---------   ----------  ----------  ----------   --------
     0        -0.308114781583195    0.000e+00    0.000000    0.000000    0.000000    0.110722
     1        -0.313417222757478    4.405e-02    0.007725    0.023742    0.023742    0.112519
     2        -0.318777886030238    1.470e-02    0.007622    0.023256    0.023256    0.116665
     3        -0.320379440790882    6.932e-03    0.008957    0.028554    0.028554    0.118184
     4        -0.320365385477598    1.847e-03    0.009312    0.030231    0.030231    0.118443
     5        -0.320360069979459    8.465e-04    0.009465    0.031128    0.031128    0.118492
     6        -0.320370500397633    2.769e-04    0.009527    0.031496    0.031496    0.118479
     7        -0.320365904964859    8.382e-05    0.009536    0.031566    0.031566    0.118461
     8        -0.320364073057347    2.200e-05    0.009538    0.031580    0.031580    0.118457
     9        -0.320364364778661    6.126e-06    0.009539    0.031583    0.031583    0.118457
    10        -0.320364119996737    2.059e-06    0.009539    0.031584    0.031584    0.118457
    11        -0.320364107911665    6.171e-07    0.009538    0.031584    0.031584    0.118457
    12        -0.320364097051356    2.261e-07    0.009538    0.031584    0.031584    0.118457
    13        -0.320364099620534    7.774e-08    0.009538    0.031584    0.031584    0.118457

    Iterations converged.


    Largest TIA Amplitudes:
              6   2         0.0279555124
              5   3         0.0114809680
              6  13        -0.0089354936
              6   4         0.0086630900
              5   6         0.0073503445
              8  62        -0.0057240177
              2   3         0.0053150981
              3   4        -0.0052910045
              2   5        -0.0051269012
              7  43        -0.0050765516

    Largest TIjAb Amplitudes:
      6   6  30  30        -0.0307300130
      7   7   0   0        -0.0278840017
      7   7  42  42        -0.0264649694
      3   3  41  41        -0.0264602228
      7   7  41  41        -0.0263115416
      3   3   2   2        -0.0253248728
      3   3   0   0        -0.0240985634
      4   4  42  42        -0.0238122370
      4   4   2   2        -0.0228118001
      6   6   2   2        -0.0181744384

    SCF energy       (wfn)                    = -105.960082319880101
    Reference energy (file100)                = -105.960082319879689

    Opposite-spin MP2 correlation energy      =   -0.225296775257141
    Same-spin MP2 correlation energy          =   -0.082818006326053
    MP2 correlation energy                    =   -0.308114781583195
      * MP2 total energy                      = -106.268197101462889

    Opposite-spin CCSD correlation energy     =   -0.243958475099792
    Same-spin CCSD correlation energy         =   -0.076405624520742
    CCSD correlation energy                   =   -0.320364099620534
      * CCSD total energy                     = -106.280446419500223

            **************************
            *                        *
            *        CCTRIPLES       *
            *                        *
            **************************


    Wave function   =    CCSD_T
    Reference wfn   =      RHF

    Nuclear Rep. energy (wfn)                =   34.560606801645655
    SCF energy          (wfn)                = -105.960082319880101
    Reference energy    (file100)            = -105.960082319879689
    CCSD energy         (file100)            =   -0.320364099620534
    Total CCSD energy   (file100)            = -106.280446419500223

    Number of ijk index combinations:              165
    Memory available in words        :      6250000000
    ~Words needed per explicit thread:          275684
    Number of threads for explicit ijk threading:    1

    MKL num_threads set to 1 for explicit threading.

    (T) energy                                =   -0.007163135238875
      * CCSD(T) total energy                  = -106.287609554739092


  //>>>>>>>>>>>>>>>>>>>>>>>>>>>>>>>>>>>>>>>//
  // CBS Computation: CCSD(T) / DEF2-TZVPD //
  //<<<<<<<<<<<<<<<<<<<<<<<<<<<<<<<<<<<<<<<//


*** tstart() called on node75.bme.utexas.edu
*** at Mon Feb 28 03:15:08 2022

   => Loading Basis Set <=

    Name: DEF2-TZVPD
    Role: ORBITAL
    Keyword: BASIS
    atoms 1   entry LA         line  2525 (ECP: line  3764) file /home/jtg2769/poltype/miniconda3/envs/p4env/share/psi4/basis/def2-tzvpd.gbs 
    atoms 2   entry O          line   208 file /home/jtg2769/poltype/miniconda3/envs/p4env/share/psi4/basis/def2-tzvpd.gbs 
    atoms 3-4 entry H          line    14 file /home/jtg2769/poltype/miniconda3/envs/p4env/share/psi4/basis/def2-tzvpd.gbs 

    !!!  WARNING: ECP capability is in beta. Please check occupations closely.  !!!


         ---------------------------------------------------------
                                   SCF
               by Justin Turney, Rob Parrish, Andy Simmonett
                          and Daniel G. A. Smith
                              RHF Reference
                        1 Threads,  47683 MiB Core
         ---------------------------------------------------------

  ==> Geometry <==

    Molecular point group: cs
    Full point group: Cs

    Geometry (in Angstrom), charge = 3, multiplicity = 1:

       Center              X                  Y                   Z               Mass       
    ------------   -----------------  -----------------  -----------------  -----------------
         LA          -0.035257193847    -0.254841843290     0.000000000000   138.906356300000
         O            0.261701806153     1.899447156710     0.000000000000    15.994914619570
         H            0.353012806153     2.489349156710     0.761699000000     1.007825032230
         H            0.353012806153     2.489349156710    -0.761699000000     1.007825032230

  Running in cs symmetry.

  Rotational constants: A =     14.41298  B =      0.20879  C =      0.20581 [cm^-1]
  Rotational constants: A = 432090.20992  B =   6259.39741  C =   6170.04127 [MHz]
  Nuclear repulsion =   34.560606801645655

  Charge       = 3
  Multiplicity = 1
  Electrons    = 18
  Nalpha       = 9
  Nbeta        = 9

  ==> Algorithm <==

  SCF Algorithm Type is PK.
  DIIS enabled.
  MOM disabled.
  Fractional occupation disabled.
  Guess Type is SAD.
  Energy threshold   = 1.00e-08
  Density threshold  = 1.00e-08
  Integral threshold = 0.00e+00

  ==> Primary Basis <==

  Basis Set: DEF2-TZVPD
    Blend: DEF2-TZVPD
    Number of shells: 39
    Number of basis function: 101
    Number of Cartesian functions: 113
    Spherical Harmonics?: true
    Max angular momentum: 3

  Core potential: DEF2-TZVPD
    Number of shells: 4
    Number of ECP primitives: 10
    Number of ECP core electrons: 46
    Max angular momentum: 3

  ==> Pre-Iterations <==

   -------------------------------------------------------
    Irrep   Nso     Nmo     Nalpha   Nbeta   Ndocc  Nsocc
   -------------------------------------------------------
     A'        65      65       0       0       0       0
     A"        36      36       0       0       0       0
   -------------------------------------------------------
    Total     101     101       9       9       9       0
   -------------------------------------------------------

  ==> Integral Setup <==

  Using in-core PK algorithm.
   Calculation information:
      Number of atoms:                   4
      Number of AO shells:              39
      Number of primitives:             58
      Number of atomic orbitals:       113
      Number of basis functions:       101

      Integral cutoff                 1.00e-12
      Number of threads:                 1

  Performing in-core PK
  Using 26537952 doubles for integral storage.
  We computed 300098 shell quartets total.
  Whereas there are 304590 unique shell quartets.

  ==> DiskJK: Disk-Based J/K Matrices <==

    J tasked:                  Yes
    K tasked:                  Yes
    wK tasked:                  No
    Memory [MiB]:            35762
    Schwarz Cutoff:          1E-12

    OpenMP threads:              1

  Minimum eigenvalue in the overlap matrix is 3.5327370136E-04.
  Using Symmetric Orthogonalization.

  SCF Guess: Superposition of Atomic Densities via on-the-fly atomic UHF.

  ==> Iterations <==

                        Total Energy        Delta E     RMS |[F,P]|

   @RHF iter SAD:  -106.86571966317423   -1.06866e+02   0.00000e+00 
   @RHF iter   1:  -105.97402431126623    8.91695e-01   5.58043e-03 DIIS
   @RHF iter   2:  -106.03151681313717   -5.74925e-02   3.12919e-03 DIIS
   @RHF iter   3:  -106.04875278613940   -1.72360e-02   4.47977e-04 SOSCF, nmicro=5
   @RHF iter   4:  -106.04950252395352   -7.49738e-04   3.90482e-06 SOSCF, nmicro=5
   @RHF iter   5:  -106.04950260705439   -8.31009e-08   4.64422e-08 SOSCF, nmicro=5
   @RHF iter   6:  -106.04950260705991   -5.51381e-12   4.44690e-10 SOSCF, nmicro=conv
  Energy and wave function converged.


  ==> Post-Iterations <==

    Orbital Energies [Eh]
    ---------------------

    Doubly Occupied:                                                      

       1Ap   -21.243424     2Ap    -2.567553     3Ap    -2.052877  
       1App   -1.768334     4Ap    -1.766556     5Ap    -1.763963  
       2App   -1.391345     6Ap    -1.300857     7Ap    -1.203750  

    Virtual:                                                              

       8Ap    -0.585966     3App   -0.585474     4App   -0.574010  
       9Ap    -0.567677    10Ap    -0.559261    11Ap    -0.496791  
       5App   -0.437837    12Ap    -0.430192    13Ap    -0.413597  
       6App   -0.324212    14Ap    -0.303779    15Ap    -0.294843  
      16Ap    -0.293030    17Ap    -0.286590     7App   -0.285936  
      18Ap    -0.262118     8App   -0.255118    19Ap    -0.249930  
       9App   -0.238241    20Ap    -0.230480    21Ap    -0.225707  
      22Ap    -0.212433    10App   -0.194414    11App   -0.184217  
      23Ap    -0.138186    12App   -0.106107    24Ap    -0.101912  
      25Ap    -0.088674    13App   -0.057323    26Ap    -0.056817  
      27Ap    -0.036880    28Ap    -0.034122    14App   -0.028805  
      15App   -0.014495    29Ap    -0.002638    30Ap     0.005520  
      16App    0.013983    17App    0.032332    31Ap     0.050322  
      32Ap     0.085196    18App    0.140339    33Ap     0.154483  
      19App    0.178451    34Ap     0.197290    35Ap     0.203415  
      20App    0.221738    36Ap     0.265311    37Ap     0.288529  
      38Ap     0.295315    21App    0.340610    39Ap     0.340664  
      40Ap     0.377519    41Ap     0.424771    22App    0.482595  
      23App    0.518574    42Ap     0.656706    43Ap     0.865163  
      24App    1.165382    44Ap     1.223945    45Ap     1.302032  
      25App    1.382148    46Ap     1.508453    26App    1.571453  
      47Ap     1.725713    27App    1.769606    48Ap     2.065584  
      49Ap     2.200352    28App    2.300530    29App    2.498936  
      50Ap     2.577595    51Ap     2.599275    52Ap     2.830763  
      53Ap     3.541819    30App    3.723585    54Ap     4.878489  
      55Ap     5.044322    56Ap     5.158834    31App    5.203731  
      32App    5.217907    33App    5.869255    57Ap     6.112618  
      58Ap     6.291447    34App    6.333370    59Ap     6.495995  
      60Ap     6.734408    35App    6.903257    61Ap    11.235121  
      62Ap    11.303726    36App   11.370420    63Ap    12.193898  
      64Ap    33.064125    65Ap    44.607908  

    Final Occupation by Irrep:
             Ap   App 
    DOCC [     7,    2 ]

  @RHF Final Energy:  -106.04950260705991

   => Energetics <=

    Nuclear Repulsion Energy =             34.5606068016456547
    One-Electron Energy =                -211.1029019648076996
    Two-Electron Energy =                  70.4927925561021311
    Total Energy =                       -106.0495026070599067

Computation Completed


Properties will be evaluated at   0.000000,   0.000000,   0.000000 [a0]

Properties computed using the SCF density matrix

  Nuclear Dipole Moment: [e a0]
     X:     4.5577      Y:    32.8265      Z:     0.0000

  Electronic Dipole Moment: [e a0]
     X:    -4.4204      Y:   -31.9438      Z:     0.0000

  Dipole Moment: [e a0]
     X:     0.1373      Y:     0.8826      Z:     0.0000     Total:     0.8932

  Dipole Moment: [D]
     X:     0.3490      Y:     2.2434      Z:     0.0000     Total:     2.2704


*** tstop() called on node75.bme.utexas.edu at Mon Feb 28 03:15:14 2022
Module time:
	user time   =       6.53 seconds =       0.11 minutes
	system time =       0.05 seconds =       0.00 minutes
	total time  =          6 seconds =       0.10 minutes
Total time:
	user time   =      29.84 seconds =       0.50 minutes
	system time =       1.92 seconds =       0.03 minutes
	total time  =         41 seconds =       0.68 minutes
 MINTS: Wrapper to libmints.
   by Justin Turney

   Calculation information:
      Number of threads:                 1
      Number of atoms:                   4
      Number of AO shells:              39
      Number of SO shells:              34
      Number of primitives:             58
      Number of atomic orbitals:       113
      Number of basis functions:       101

      Number of irreps:                  2
      Integral cutoff                 0.00e+00
      Number of functions per irrep: [  65   36 ]

 OEINTS: Overlap, kinetic, potential, dipole, and quadrupole integrals
         stored in file 35.

      Computing two-electron integrals...done
      Computed 6449880 non-zero two-electron integrals.
        Stored in file 33.


*** tstart() called on node75.bme.utexas.edu
*** at Mon Feb 28 03:15:17 2022


	Wfn Parameters:
	--------------------
	Wavefunction         = CCSD_T
	Number of irreps     = 2
	Number of MOs        = 101
	Number of active MOs = 101
	AO-Basis             = NONE
	Semicanonical        = false
	Reference            = RHF
	Print Level          = 1

	IRREP	# MOs	# FZDC	# DOCC	# SOCC	# VIRT	# FZVR
	-----	-----	------	------	------	------	------
	 Ap	   65	    0	    7	    0	    58	    0
	 App	   36	    0	    2	    0	    34	    0
	Transforming integrals...
	IWL integrals will be deleted.
	(OO|OO)...
	Presorting SO-basis two-electron integrals.
	Sorting File: SO Ints (nn|nn) nbuckets = 1
	Transforming the one-electron integrals and constructing Fock matrices
	Starting first half-transformation.
	Sorting half-transformed integrals.
	First half integral transformation complete.
	Starting second half-transformation.
	Two-electron integral transformation complete.
	(OO|OV)...
	Starting second half-transformation.
	Two-electron integral transformation complete.
	(OO|VV)...
	Starting second half-transformation.
	Two-electron integral transformation complete.
	(OV|OO)...
	Starting first half-transformation.
	Sorting half-transformed integrals.
	First half integral transformation complete.
	Starting second half-transformation.
	Two-electron integral transformation complete.
	(OV|OV)...
	Starting second half-transformation.
	Two-electron integral transformation complete.
	(OV|VV)...
	Starting second half-transformation.
	Two-electron integral transformation complete.
	(VV|OO)...
	Starting first half-transformation.
	Sorting half-transformed integrals.
	First half integral transformation complete.
	Starting second half-transformation.
	Two-electron integral transformation complete.
	(VV|OV)...
	Starting second half-transformation.
	Two-electron integral transformation complete.
	(VV|VV)...
	Starting second half-transformation.
	Two-electron integral transformation complete.
	Frozen core energy     =      0.00000000000000

	Size of irrep 0 of <ab|cd> integrals:     20.430 (MW) /    163.443 (MB)
	Size of irrep 1 of <ab|cd> integrals:     15.555 (MW) /    124.441 (MB)
	Total:                                    35.986 (MW) /    287.884 (MB)

	Size of irrep 0 of <ia|bc> integrals:      2.142 (MW) /     17.140 (MB)
	Size of irrep 1 of <ia|bc> integrals:      1.396 (MW) /     11.169 (MB)
	Total:                                     3.539 (MW) /     28.309 (MB)

	Size of irrep 0 of tijab amplitudes:       0.240 (MW) /      1.916 (MB)
	Size of irrep 1 of tijab amplitudes:       0.110 (MW) /      0.883 (MB)
	Total:                                     0.350 (MW) /      2.800 (MB)

	Nuclear Rep. energy          =     34.56060680164565
	SCF energy                   =   -106.04950260705991
	One-electron energy          =   -211.10290203619610
	Two-electron energy          =     70.49279262749022
	Reference energy             =   -106.04950260706022

*** tstop() called on node75.bme.utexas.edu at Mon Feb 28 03:15:23 2022
Module time:
	user time   =       3.02 seconds =       0.05 minutes
	system time =       1.30 seconds =       0.02 minutes
	total time  =          6 seconds =       0.10 minutes
Total time:
	user time   =      35.37 seconds =       0.59 minutes
	system time =       3.28 seconds =       0.05 minutes
	total time  =         50 seconds =       0.83 minutes
            **************************
            *                        *
            *        CCENERGY        *
            *                        *
            **************************

    Nuclear Rep. energy (wfn)     =   34.560606801645655
    SCF energy          (wfn)     = -106.049502607059907
    Reference energy    (file100) = -106.049502607060219

    Input parameters:
    -----------------
    Wave function   =     CCSD_T
    Reference wfn   =     RHF
    Brueckner       =     No
    Memory (Mbytes) =     50000.0
    Maxiter         =     50
    R_Convergence   =     1.0e-07
    E_Convergence   =     1.0e-06
    Restart         =     Yes
    DIIS            =     Yes
    AO Basis        =     NONE
    ABCD            =     NEW
    Cache Level     =     2
    Cache Type      =     LOW
    Print Level     =     1
    Num. of threads =     1
    # Amps to Print =     10
    Print MP2 Amps? =     No
    Analyze T2 Amps =     No
    Print Pair Ener =     No
    Local CC        =     No
    SCS-MP2         =     False
    SCSN-MP2        =     False
    SCS-CCSD        =     False

MP2 correlation energy -0.4013784903137243
                Solving CC Amplitude Equations
                ------------------------------
  Iter             Energy              RMS        T1Diag      D1Diag    New D1Diag    D2Diag
  ----     ---------------------    ---------   ----------  ----------  ----------   --------
     0        -0.401378490313724    0.000e+00    0.000000    0.000000    0.000000    0.115943
     1        -0.405749282354576    4.212e-02    0.006634    0.020614    0.020614    0.116499
     2        -0.411805556438014    1.434e-02    0.006353    0.019620    0.019620    0.120613
     3        -0.413438560462617    6.326e-03    0.007455    0.024122    0.024122    0.121925
     4        -0.413339618706207    1.676e-03    0.007750    0.025462    0.025462    0.122140
     5        -0.413345419380992    8.108e-04    0.007916    0.026366    0.026366    0.122204
     6        -0.413359007865361    2.676e-04    0.007978    0.026710    0.026710    0.122196
     7        -0.413353565024345    8.624e-05    0.007988    0.026784    0.026784    0.122178
     8        -0.413351768479411    2.148e-05    0.007990    0.026799    0.026799    0.122174
     9        -0.413352129153759    6.322e-06    0.007991    0.026802    0.026802    0.122174
    10        -0.413351741648105    2.141e-06    0.007991    0.026803    0.026803    0.122174
    11        -0.413351752838199    5.898e-07    0.007991    0.026803    0.026803    0.122174
    12        -0.413351738850647    2.282e-07    0.007991    0.026803    0.026803    0.122174
    13        -0.413351739257797    7.264e-08    0.007991    0.026803    0.026803    0.122174

    Iterations converged.


    Largest TIA Amplitudes:
              6   2         0.0237738758
              5   3         0.0090225299
              6   4         0.0074647428
              5   6         0.0058778647
              8  84         0.0056222385
              6  42        -0.0055548309
              6  13        -0.0051566723
              8  59        -0.0045438043
              2   3         0.0043909947
              5  43        -0.0043168165

    Largest TIjAb Amplitudes:
      7   7   0   0        -0.0275181168
      3   3  58  58        -0.0261216113
      7   7  58  58        -0.0259620910
      7   7  59  59        -0.0258744129
      3   3   2   2        -0.0249760256
      3   3   0   0        -0.0237353228
      4   4  59  59        -0.0235111549
      4   4   2   2        -0.0226165702
      6   6   2   2        -0.0172978433
      3   7   2  59        -0.0169435324

    SCF energy       (wfn)                    = -106.049502607059907
    Reference energy (file100)                = -106.049502607060219

    Opposite-spin MP2 correlation energy      =   -0.299048951833769
    Same-spin MP2 correlation energy          =   -0.102329538479955
    MP2 correlation energy                    =   -0.401378490313724
      * MP2 total energy                      = -106.450881097373937

    Opposite-spin CCSD correlation energy     =   -0.319357493312632
    Same-spin CCSD correlation energy         =   -0.093994245945164
    CCSD correlation energy                   =   -0.413351739257797
      * CCSD total energy                     = -106.462854346318011

            **************************
            *                        *
            *        CCTRIPLES       *
            *                        *
            **************************


    Wave function   =    CCSD_T
    Reference wfn   =      RHF

    Nuclear Rep. energy (wfn)                =   34.560606801645655
    SCF energy          (wfn)                = -106.049502607059907
    Reference energy    (file100)            = -106.049502607060219
    CCSD energy         (file100)            =   -0.413351739257797
    Total CCSD energy   (file100)            = -106.462854346318011

    Number of ijk index combinations:              165
    Memory available in words        :      6250000000
    ~Words needed per explicit thread:          780448
    Number of threads for explicit ijk threading:    1

    MKL num_threads set to 1 for explicit threading.

    (T) energy                                =   -0.010784560237298
      * CCSD(T) total energy                  = -106.473638906555308


  //>>>>>>>>>>>>>>>>>>>>>>>>>>>>>>>>>>>//
  //    CBS Results: custom function   //
  //<<<<<<<<<<<<<<<<<<<<<<<<<<<<<<<<<<<//


   ==> HF <==

   HI-zeta (4) Energy:               -106.059774554440


   ==> Helgaker 2-point correlated extrapolation for method: MP2 <==

   LO-zeta (3) Energy:               -106.450881097374
   HI-zeta (4) Energy:               -106.538385808457
   Alpha (exponent) Value:             3.000000000000
   Extrapolated Energy:              -106.602240597626

   @Extrapolated MP2/(T,Q):          -106.602240597626



   ==> Helgaker 2-point correlated extrapolation for method: HF <==

   LO-zeta (3) Energy:               -106.049502607060
   HI-zeta (4) Energy:               -106.059774554440
   Alpha (exponent) Value:             3.000000000000
   Extrapolated Energy:              -106.067270299826

   @Extrapolated HF/(T,Q):           -106.067270299826



   ==> Helgaker 2-point correlated extrapolation for method: CCSD(T) <==

   LO-zeta (2) Energy:               -106.287609554739
   HI-zeta (3) Energy:               -106.473638906555
   Alpha (exponent) Value:             3.000000000000
   Extrapolated Energy:              -106.551967054688

   @Extrapolated CCSD(T)/(D,T):      -106.551967054688



   ==> Helgaker 2-point correlated extrapolation for method: MP2 <==

   LO-zeta (2) Energy:               -106.268197101463
   HI-zeta (3) Energy:               -106.450881097374
   Alpha (exponent) Value:             3.000000000000
   Extrapolated Energy:              -106.527800674600

   @Extrapolated MP2/(D,T):          -106.527800674600


   ==> Components <==

  ---------------------------------------------------------------------------------------------------------
                          Method / Basis                      Rqd      Energy [Eh]   Variable
  ---------------------------------------------------------------------------------------------------------
                              hf / def2-qzvpd                   *    -106.05977455   HF TOTAL ENERGY
                             mp2 / def2-qzvpd                   *    -106.53838581   MP2 TOTAL ENERGY
                              hf / def2-svpd                         -105.96008232   HF TOTAL ENERGY
                             mp2 / def2-svpd                    *    -106.26819710   MP2 TOTAL ENERGY
                            ccsd / def2-svpd                         -106.28044642   CCSD TOTAL ENERGY
                         ccsd(t) / def2-svpd                    *    -106.28760955   CCSD(T) TOTAL ENERGY
                              hf / def2-tzvpd                   *    -106.04950261   HF TOTAL ENERGY
                             mp2 / def2-tzvpd                   *    -106.45088110   MP2 TOTAL ENERGY
                            ccsd / def2-tzvpd                        -106.46285435   CCSD TOTAL ENERGY
                         ccsd(t) / def2-tzvpd                   *    -106.47363891   CCSD(T) TOTAL ENERGY
  ---------------------------------------------------------------------------------------------------------

   ==> Stages <==

  ---------------------------------------------------------------------------------------------------------
      Stage               Method / Basis                       Wt      Energy [Eh]   Scheme
  ---------------------------------------------------------------------------------------------------------
        scf                   hf / def2-qzvpd                   1    -106.05977455   xtpl_highest_1
       corl                  mp2 / def2-[tq]zvpd                1    -106.60224060   corl_xtpl_helgaker_2
       corl                   hf / def2-[tq]zvpd               -1    -106.06727030   corl_xtpl_helgaker_2
     delta1              ccsd(t) / def2-[st]zvpd                1    -106.55196705   corl_xtpl_helgaker_2
     delta1                  mp2 / def2-[st]zvpd               -1    -106.52780067   corl_xtpl_helgaker_2
  ---------------------------------------------------------------------------------------------------------

   ==> CBS <==

  ---------------------------------------------------------------------------------------------------------
      Stage               Method / Basis                               Energy [Eh]   Scheme
  ---------------------------------------------------------------------------------------------------------
        scf                   hf / def2-qzvpd                        -106.05977455   xtpl_highest_1
       corl                  mp2 / def2-[tq]zvpd                       -0.53497030   corl_xtpl_helgaker_2
     delta1        ccsd(t) - mp2 / def2-[st]zvpd                       -0.02416638   corl_xtpl_helgaker_2
      total                  CBS                                     -106.61891123   
  ---------------------------------------------------------------------------------------------------------
   => Loading Basis Set <=

    Name: DEF2-SVP
    Role: ORBITAL
    Keyword: BASIS
    atoms 1   entry LA         line  1831 (ECP: line  2906) file /home/jtg2769/poltype/miniconda3/envs/p4env/share/psi4/basis/def2-svp.gbs 
    atoms 2   entry O          line   130 file /home/jtg2769/poltype/miniconda3/envs/p4env/share/psi4/basis/def2-svp.gbs 
    atoms 3-4 entry H          line    15 file /home/jtg2769/poltype/miniconda3/envs/p4env/share/psi4/basis/def2-svp.gbs 

    !!!  WARNING: ECP capability is in beta. Please check occupations closely.  !!!


    Psi4 stopped on: Monday, 28 February 2022 03:15AM
    Psi4 wall time for execution: 0:01:13.11

*** Psi4 exiting successfully. Buy a developer a beer!
