
    -----------------------------------------------------------------------
          Psi4: An Open-Source Ab Initio Electronic Structure Package
                               Psi4 1.4a2.dev78 

                         Git: Rev {master} e512d40 


    R. M. Parrish, L. A. Burns, D. G. A. Smith, A. C. Simmonett,
    A. E. DePrince III, E. G. Hohenstein, U. Bozkaya, A. Yu. Sokolov,
    R. Di Remigio, R. M. Richard, J. F. Gonthier, A. M. James,
    H. R. McAlexander, A. Kumar, M. Saitow, X. Wang, B. P. Pritchard,
    P. Verma, H. F. Schaefer III, K. Patkowski, R. A. King, E. F. Valeev,
    F. A. Evangelista, J. M. Turney, T. D. Crawford, and C. D. Sherrill,
    J. Chem. Theory Comput. 13(7) pp 3185--3197 (2017).
    (doi: 10.1021/acs.jctc.7b00174)


                         Additional Contributions by
    P. Kraus, H. Kruse, M. H. Lechner, M. C. Schieber, R. A. Shaw,
    A. Alenaizan, R. Galvelis, Z. L. Glick, S. Lehtola, and J. P. Misiewicz

    -----------------------------------------------------------------------


    Psi4 started on: Monday, 28 February 2022 03:06AM

    Process ID: 3461254
    Host:       node75.bme.utexas.edu
    PSIDATADIR: /home/jtg2769/poltype/miniconda3/envs/p4env/share/psi4
    Memory:     500.0 MiB
    Threads:    1
    
  ==> Input File <==

--------------------------------------------------------------------------
memory 50 GB
set basis def2-QZVPD
set soscf true
set fail_on_maxiter false
molecule{
	3 1
	La -0.038392 -0.277582 0.000000
	--
	0 1
	O 0.203945 1.480454 0.000000
	H 0.295256 2.070356 0.761699
	H 0.295256 2.070356 -0.761699
}

energy(cbs, corl_wfn='mp2',corl_basis='def2-[TQ]ZVPD', delta_wfn='ccsd(t)', delta_basis='def2-[DT]ZVPD')
--------------------------------------------------------------------------

  Memory set to  46.566 GiB by Python driver.

  //>>>>>>>>>>>>>>>>>>>>>>>>>>>>>>>>>>>//
  //     CBS Setup: custom function    //
  //<<<<<<<<<<<<<<<<<<<<<<<<<<<<<<<<<<<//

    Naive listing of computations required.
             hf / def2-qzvpd               for  HF TOTAL ENERGY
            mp2 / def2-tzvpd               for  MP2 TOTAL ENERGY
            mp2 / def2-qzvpd               for  MP2 TOTAL ENERGY
             hf / def2-tzvpd               for  HF TOTAL ENERGY
             hf / def2-qzvpd               for  HF TOTAL ENERGY
        ccsd(t) / def2-svpd                for  CCSD(T) TOTAL ENERGY
        ccsd(t) / def2-tzvpd               for  CCSD(T) TOTAL ENERGY
            mp2 / def2-svpd                for  MP2 TOTAL ENERGY
            mp2 / def2-tzvpd               for  MP2 TOTAL ENERGY

    Enlightened listing of computations required.
            mp2 / def2-qzvpd               for  MP2 TOTAL ENERGY
        ccsd(t) / def2-svpd                for  CCSD(T) TOTAL ENERGY
        ccsd(t) / def2-tzvpd               for  CCSD(T) TOTAL ENERGY

    Full listing of computations to be obtained (required and bonus).
             hf / def2-qzvpd               for  HF TOTAL ENERGY
            mp2 / def2-qzvpd               for  MP2 TOTAL ENERGY
             hf / def2-svpd                for  HF TOTAL ENERGY
            mp2 / def2-svpd                for  MP2 TOTAL ENERGY
           ccsd / def2-svpd                for  CCSD TOTAL ENERGY
        ccsd(t) / def2-svpd                for  CCSD(T) TOTAL ENERGY
             hf / def2-tzvpd               for  HF TOTAL ENERGY
            mp2 / def2-tzvpd               for  MP2 TOTAL ENERGY
           ccsd / def2-tzvpd               for  CCSD TOTAL ENERGY
        ccsd(t) / def2-tzvpd               for  CCSD(T) TOTAL ENERGY

  //>>>>>>>>>>>>>>>>>>>>>>>>>>>>>>>>>>>//
  // CBS Computation: MP2 / DEF2-QZVPD //
  //<<<<<<<<<<<<<<<<<<<<<<<<<<<<<<<<<<<//

    SCF Algorithm Type (re)set to DF.

*** tstart() called on node75.bme.utexas.edu
*** at Mon Feb 28 03:06:33 2022

   => Loading Basis Set <=

    Name: DEF2-QZVPD
    Role: ORBITAL
    Keyword: BASIS
    atoms 1   entry LA         line  3634 (ECP: line  5113) file /home/jtg2769/poltype/miniconda3/envs/p4env/share/psi4/basis/def2-qzvpd.gbs 
    atoms 2   entry O          line   305 file /home/jtg2769/poltype/miniconda3/envs/p4env/share/psi4/basis/def2-qzvpd.gbs 
    atoms 3-4 entry H          line    14 file /home/jtg2769/poltype/miniconda3/envs/p4env/share/psi4/basis/def2-qzvpd.gbs 

    !!!  WARNING: ECP capability is in beta. Please check occupations closely.  !!!


         ---------------------------------------------------------
                                   SCF
               by Justin Turney, Rob Parrish, Andy Simmonett
                          and Daniel G. A. Smith
                              RHF Reference
                        1 Threads,  47683 MiB Core
         ---------------------------------------------------------

  ==> Geometry <==

    Molecular point group: cs
    Full point group: Cs

    Geometry (in Angstrom), charge = 3, multiplicity = 1:

       Center              X                  Y                   Z               Mass       
    ------------   -----------------  -----------------  -----------------  -----------------
         LA          -0.028987805830    -0.209360831790     0.000000000000   138.906356300000
         O            0.213349194170     1.548675168210     0.000000000000    15.994914619570
         H            0.304660194170     2.138577168210     0.761699000000     1.007825032230
         H            0.304660194170     2.138577168210    -0.761699000000     1.007825032230

  Running in cs symmetry.

  Rotational constants: A =     14.41301  B =      0.30818  C =      0.30173 [cm^-1]
  Rotational constants: A = 432091.24039  B =   9238.91478  C =   9045.55722 [MHz]
  Nuclear repulsion =   40.010672495883128

  Charge       = 3
  Multiplicity = 1
  Electrons    = 18
  Nalpha       = 9
  Nbeta        = 9

  ==> Algorithm <==

  SCF Algorithm Type is DF.
  DIIS enabled.
  MOM disabled.
  Fractional occupation disabled.
  Guess Type is SAD.
  Energy threshold   = 1.00e-08
  Density threshold  = 1.00e-08
  Integral threshold = 0.00e+00

  ==> Primary Basis <==

  Basis Set: DEF2-QZVPD
    Blend: DEF2-QZVPD
    Number of shells: 62
    Number of basis function: 204
    Number of Cartesian functions: 249
    Spherical Harmonics?: true
    Max angular momentum: 4

  Core potential: DEF2-QZVPD
    Number of shells: 4
    Number of ECP primitives: 10
    Number of ECP core electrons: 46
    Max angular momentum: 3

   => Loading Basis Set <=

    Name: (DEF2-QZVPD AUX)
    Role: JKFIT
    Keyword: DF_BASIS_SCF
    atoms 1   entry LA         line  5333 file /home/jtg2769/poltype/miniconda3/envs/p4env/share/psi4/basis/def2-qzvp-jkfit.gbs 
    atoms 2   entry O          line   323 file /home/jtg2769/poltype/miniconda3/envs/p4env/share/psi4/basis/def2-qzvp-jkfit.gbs 
    atoms 3-4 entry H          line    23 file /home/jtg2769/poltype/miniconda3/envs/p4env/share/psi4/basis/def2-qzvp-jkfit.gbs 

  ==> Pre-Iterations <==

   -------------------------------------------------------
    Irrep   Nso     Nmo     Nalpha   Nbeta   Ndocc  Nsocc
   -------------------------------------------------------
     A'       122     122       0       0       0       0
     A"        82      82       0       0       0       0
   -------------------------------------------------------
    Total     204     204       9       9       9       0
   -------------------------------------------------------

  ==> Integral Setup <==

  DFHelper Memory: AOs need 0.119 GiB; user supplied 34.925 GiB. Using in-core AOs.

  ==> MemDFJK: Density-Fitted J/K Matrices <==

    J tasked:                   Yes
    K tasked:                   Yes
    wK tasked:                   No
    OpenMP threads:               1
    Memory [MiB]:             35762
    Algorithm:                 Core
    Schwarz Cutoff:           1E-12
    Mask sparsity (%):       0.0529
    Fitting Condition:        1E-10

   => Auxiliary Basis Set <=

  Basis Set: (DEF2-QZVPD AUX)
    Blend: DEF2-QZVP-JKFIT
    Number of shells: 82
    Number of basis function: 340
    Number of Cartesian functions: 474
    Spherical Harmonics?: true
    Max angular momentum: 6

  Minimum eigenvalue in the overlap matrix is 1.8069088868E-05.
  Using Symmetric Orthogonalization.

  SCF Guess: Superposition of Atomic Densities via on-the-fly atomic UHF.

  ==> Iterations <==

                           Total Energy        Delta E     RMS |[F,P]|

   @DF-RHF iter SAD:  -107.04899236667291   -1.07049e+02   0.00000e+00 
   @DF-RHF iter   1:  -105.82488178949907    1.22411e+00   3.21366e-03 DIIS
   @DF-RHF iter   2:  -105.90465149411756   -7.97697e-02   1.50325e-03 DIIS
   @DF-RHF iter   3:  -105.92059643042224   -1.59449e-02   3.34602e-04 SOSCF, nmicro=5
   @DF-RHF iter   4:  -105.92213351844542   -1.53709e-03   3.75646e-06 SOSCF, nmicro=5
   @DF-RHF iter   5:  -105.92213382100577   -3.02560e-07   2.49203e-08 SOSCF, nmicro=5
   @DF-RHF iter   6:  -105.92213382101426   -8.48388e-12   3.35179e-10 SOSCF, nmicro=conv
  Energy and wave function converged.


  ==> Post-Iterations <==

    Orbital Energies [Eh]
    ---------------------

    Doubly Occupied:                                                      

       1Ap   -21.350111     2Ap    -2.566730     3Ap    -2.214629  
       4Ap    -1.790515     1App   -1.750150     5Ap    -1.744187  
       2App   -1.522603     6Ap    -1.349535     7Ap    -1.328249  

    Virtual:                                                              

       8Ap    -0.569897     3App   -0.567300     9Ap    -0.554102  
       4App   -0.545772    10Ap    -0.511869    11Ap    -0.447587  
       5App   -0.443380    12Ap    -0.433044    13Ap    -0.431389  
       6App   -0.372554    14Ap    -0.320789    15Ap    -0.317031  
      16Ap    -0.306511     7App   -0.299832    17Ap    -0.293730  
      18Ap    -0.274956     8App   -0.266170     9App   -0.254441  
      19Ap    -0.250733    20Ap    -0.248491    10App   -0.247230  
      21Ap    -0.236025    22Ap    -0.235643    11App   -0.230467  
      23Ap    -0.226742    12App   -0.203168    24Ap    -0.177301  
      25Ap    -0.172127    13App   -0.156132    26Ap    -0.138976  
      27Ap    -0.138401    14App   -0.128432    28Ap    -0.119401  
      29Ap    -0.118731    30Ap    -0.101725    15App   -0.098906  
      16App   -0.095786    17App   -0.091461    31Ap    -0.085603  
      32Ap    -0.076587    33Ap    -0.061412    18App   -0.039884  
      34Ap    -0.038219    19App   -0.009868    20App   -0.008363  
      35Ap     0.012085    36Ap     0.029086    37Ap     0.074006  
      38Ap     0.090559    21App    0.106762    39Ap     0.115338  
      40Ap     0.147451    22App    0.160043    41Ap     0.176539  
      23App    0.180391    42Ap     0.200151    24App    0.204167  
      43Ap     0.205692    25App    0.221385    44Ap     0.237918  
      26App    0.239637    45Ap     0.244771    46Ap     0.285867  
      47Ap     0.299239    27App    0.326385    28App    0.349320  
      48Ap     0.377121    49Ap     0.383238    50Ap     0.389294  
      29App    0.390260    30App    0.446652    51Ap     0.465180  
      31App    0.491617    52Ap     0.527359    53Ap     0.578480  
      32App    0.580323    33App    0.615695    54Ap     0.626633  
      55Ap     0.630254    34App    0.701232    56Ap     0.720841  
      57Ap     0.748342    58Ap     0.749468    35App    0.784565  
      59Ap     0.891266    36App    0.987717    37App    1.005629  
      60Ap     1.049382    61Ap     1.065259    38App    1.133395  
      62Ap     1.137299    63Ap     1.140320    64Ap     1.173886  
      39App    1.190034    40App    1.193181    65Ap     1.211189  
      66Ap     1.321238    41App    1.389093    67Ap     1.390612  
      68Ap     1.519514    42App    1.644298    69Ap     1.698699  
      70Ap     1.763318    43App    1.832070    44App    1.976412  
      71Ap     2.024443    45App    2.046913    72Ap     2.068218  
      46App    2.087047    73Ap     2.305589    74Ap     2.349012  
      47App    2.370058    75Ap     2.386385    48App    2.477810  
      49App    2.689755    76Ap     2.887444    50App    2.936010  
      77Ap     2.956016    78Ap     3.163576    79Ap     3.318315  
      51App    3.418124    80Ap     3.455023    81Ap     3.510603  
      52App    3.636638    82Ap     3.831642    83Ap     3.967536  
      53App    4.007632    54App    4.079478    84Ap     4.155740  
      55App    4.501770    85Ap     4.503907    86Ap     5.075494  
      56App    5.170024    87Ap     5.279839    88Ap     5.332208  
      57App    5.510768    89Ap     5.608085    58App    5.640537  
      59App    6.004622    90Ap     6.101727    60App    6.441222  
      91Ap     6.631134    61App    6.849200    92Ap     6.929507  
      62App    6.971158    93Ap     7.006659    63App    7.024238  
      64App    7.154445    94Ap     7.237821    95Ap     7.344632  
      96Ap     7.373954    65App    7.545341    97Ap     7.571065  
      98Ap     7.584664    66App    7.634674    67App    7.648201  
      99Ap     7.939339    68App    7.944939    69App    8.211681  
     100Ap     8.228729   101Ap     8.386203    70App    8.455584  
     102Ap     8.633618    71App    8.748816   103Ap     9.527102  
     104Ap     9.692486    72App    9.945186   105Ap    10.029138  
      73App   10.432202   106Ap    10.464330    74App   10.600117  
     107Ap    10.851529    75App   10.873949   108Ap    11.127493  
     109Ap    11.294761    76App   11.566763   110Ap    11.576654  
      77App   11.607385   111Ap    11.632845   112Ap    11.930950  
     113Ap    12.094214   114Ap    12.103284    78App   12.374181  
      79App   12.694634   115Ap    12.886754    80App   13.222478  
     116Ap    13.432585   117Ap    13.662580    81App   13.779662  
     118Ap    14.286914   119Ap    16.503005    82App   16.560678  
     120Ap    33.195577   121Ap    48.968835   122Ap   256.144704  

    Final Occupation by Irrep:
             Ap   App 
    DOCC [     7,    2 ]

  @DF-RHF Final Energy:  -105.92213382101426

   => Energetics <=

    Nuclear Repulsion Energy =             40.0106724958831279
    One-Electron Energy =                -220.6321974450413563
    Two-Electron Energy =                  74.6993911281439864
    Total Energy =                       -105.9221338210142562

Computation Completed


Properties will be evaluated at   0.000000,   0.000000,   0.000000 [a0]

Properties computed using the SCF density matrix

  Nuclear Dipole Moment: [e a0]
     X:     3.7743      Y:    27.1432      Z:     0.0000

  Electronic Dipole Moment: [e a0]
     X:    -3.5217      Y:   -25.4362      Z:     0.0000

  Dipole Moment: [e a0]
     X:     0.2525      Y:     1.7071      Z:     0.0000     Total:     1.7257

  Dipole Moment: [D]
     X:     0.6419      Y:     4.3390      Z:     0.0000     Total:     4.3862


*** tstop() called on node75.bme.utexas.edu at Mon Feb 28 03:06:49 2022
Module time:
	user time   =      15.34 seconds =       0.26 minutes
	system time =       0.07 seconds =       0.00 minutes
	total time  =         16 seconds =       0.27 minutes
Total time:
	user time   =      15.34 seconds =       0.26 minutes
	system time =       0.07 seconds =       0.00 minutes
	total time  =         16 seconds =       0.27 minutes

*** tstart() called on node75.bme.utexas.edu
*** at Mon Feb 28 03:06:49 2022


  //>>>>>>>>>>>>>>>>>>>>>>>>>>>>>>>>>>>//
  //               DFMP2               //
  //<<<<<<<<<<<<<<<<<<<<<<<<<<<<<<<<<<<//

   => Loading Basis Set <=

    Name: (DEF2-QZVPD AUX)
    Role: RIFIT
    Keyword: DF_BASIS_MP2
    atoms 1   entry LA         line  5314 file /home/jtg2769/poltype/miniconda3/envs/p4env/share/psi4/basis/def2-qzvpp-ri.gbs 
    atoms 2   entry O          line   406 file /home/jtg2769/poltype/miniconda3/envs/p4env/share/psi4/basis/def2-qzvpp-ri.gbs 
    atoms 3-4 entry H          line    24 file /home/jtg2769/poltype/miniconda3/envs/p4env/share/psi4/basis/def2-qzvpp-ri.gbs 

	 --------------------------------------------------------
	                          DF-MP2                         
	      2nd-Order Density-Fitted Moller-Plesset Theory     
	              RMP2 Wavefunction,   1 Threads             
	                                                         
	        Rob Parrish, Justin Turney, Andy Simmonett,      
	           Ed Hohenstein, and C. David Sherrill          
	 --------------------------------------------------------

   => Auxiliary Basis Set <=

  Basis Set: (DEF2-QZVPD AUX)
    Blend: DEF2-QZVPP-RI
    Number of shells: 111
    Number of basis function: 505
    Number of Cartesian functions: 724
    Spherical Harmonics?: true
    Max angular momentum: 6

	 --------------------------------------------------------
	                 NBF =   204, NAUX =   505
	 --------------------------------------------------------
	   CLASS    FOCC     OCC    AOCC    AVIR     VIR    FVIR
	   PAIRS       0       9       9     195     195       0
	 --------------------------------------------------------

	-----------------------------------------------------------
	 ==================> DF-MP2 Energies <==================== 
	-----------------------------------------------------------
	 Reference Energy          =    -105.9221338210142562 [Eh]
	 Singles Energy            =      -0.0000000000000000 [Eh]
	 Same-Spin Energy          =      -0.1204901376811211 [Eh]
	 Opposite-Spin Energy      =      -0.3676668179912939 [Eh]
	 Correlation Energy        =      -0.4881569556724150 [Eh]
	 Total Energy              =    -106.4102907766866650 [Eh]
	-----------------------------------------------------------
	 ================> DF-SCS-MP2 Energies <================== 
	-----------------------------------------------------------
	 SCS Same-Spin Scale       =       0.3333333333333333 [-]
	 SCS Opposite-Spin Scale   =       1.2000000000000000 [-]
	 SCS Same-Spin Energy      =      -0.0401633792270404 [Eh]
	 SCS Opposite-Spin Energy  =      -0.4412001815895527 [Eh]
	 SCS Correlation Energy    =      -0.4813635608165930 [Eh]
	 SCS Total Energy          =    -106.4034973818308458 [Eh]
	-----------------------------------------------------------


*** tstop() called on node75.bme.utexas.edu at Mon Feb 28 03:06:50 2022
Module time:
	user time   =       1.48 seconds =       0.02 minutes
	system time =       0.04 seconds =       0.00 minutes
	total time  =          1 seconds =       0.02 minutes
Total time:
	user time   =      16.82 seconds =       0.28 minutes
	system time =       0.11 seconds =       0.00 minutes
	total time  =         17 seconds =       0.28 minutes

  //>>>>>>>>>>>>>>>>>>>>>>>>>>>>>>>>>>>>>>//
  // CBS Computation: CCSD(T) / DEF2-SVPD //
  //<<<<<<<<<<<<<<<<<<<<<<<<<<<<<<<<<<<<<<//


*** tstart() called on node75.bme.utexas.edu
*** at Mon Feb 28 03:06:50 2022

   => Loading Basis Set <=

    Name: DEF2-SVPD
    Role: ORBITAL
    Keyword: BASIS
    atoms 1   entry LA         line  2014 (ECP: line  3140) file /home/jtg2769/poltype/miniconda3/envs/p4env/share/psi4/basis/def2-svpd.gbs 
    atoms 2   entry O          line   149 file /home/jtg2769/poltype/miniconda3/envs/p4env/share/psi4/basis/def2-svpd.gbs 
    atoms 3-4 entry H          line    14 file /home/jtg2769/poltype/miniconda3/envs/p4env/share/psi4/basis/def2-svpd.gbs 

    !!!  WARNING: ECP capability is in beta. Please check occupations closely.  !!!


         ---------------------------------------------------------
                                   SCF
               by Justin Turney, Rob Parrish, Andy Simmonett
                          and Daniel G. A. Smith
                              RHF Reference
                        1 Threads,  47683 MiB Core
         ---------------------------------------------------------

  ==> Geometry <==

    Molecular point group: cs
    Full point group: Cs

    Geometry (in Angstrom), charge = 3, multiplicity = 1:

       Center              X                  Y                   Z               Mass       
    ------------   -----------------  -----------------  -----------------  -----------------
         LA          -0.028987805830    -0.209360831790     0.000000000000   138.906356300000
         O            0.213349194170     1.548675168210     0.000000000000    15.994914619570
         H            0.304660194170     2.138577168210     0.761699000000     1.007825032230
         H            0.304660194170     2.138577168210    -0.761699000000     1.007825032230

  Running in cs symmetry.

  Rotational constants: A =     14.41301  B =      0.30818  C =      0.30173 [cm^-1]
  Rotational constants: A = 432091.24039  B =   9238.91478  C =   9045.55722 [MHz]
  Nuclear repulsion =   40.010672495883128

  Charge       = 3
  Multiplicity = 1
  Electrons    = 18
  Nalpha       = 9
  Nbeta        = 9

  ==> Algorithm <==

  SCF Algorithm Type is PK.
  DIIS enabled.
  MOM disabled.
  Fractional occupation disabled.
  Guess Type is SAD.
  Energy threshold   = 1.00e-08
  Density threshold  = 1.00e-08
  Integral threshold = 0.00e+00

  ==> Primary Basis <==

  Basis Set: DEF2-SVPD
    Blend: DEF2-SVPD
    Number of shells: 30
    Number of basis function: 74
    Number of Cartesian functions: 81
    Spherical Harmonics?: true
    Max angular momentum: 3

  Core potential: DEF2-SVPD
    Number of shells: 4
    Number of ECP primitives: 10
    Number of ECP core electrons: 46
    Max angular momentum: 3

  ==> Pre-Iterations <==

   -------------------------------------------------------
    Irrep   Nso     Nmo     Nalpha   Nbeta   Ndocc  Nsocc
   -------------------------------------------------------
     A'        48      48       0       0       0       0
     A"        26      26       0       0       0       0
   -------------------------------------------------------
    Total      74      74       9       9       9       0
   -------------------------------------------------------

  ==> Integral Setup <==

  Using in-core PK algorithm.
   Calculation information:
      Number of atoms:                   4
      Number of AO shells:              30
      Number of primitives:             47
      Number of atomic orbitals:        81
      Number of basis functions:        74

      Integral cutoff                 1.00e-12
      Number of threads:                 1

  Performing in-core PK
  Using 7703400 doubles for integral storage.
  We computed 107871 shell quartets total.
  Whereas there are 108345 unique shell quartets.

  ==> DiskJK: Disk-Based J/K Matrices <==

    J tasked:                  Yes
    K tasked:                  Yes
    wK tasked:                  No
    Memory [MiB]:            35762
    Schwarz Cutoff:          1E-12

    OpenMP threads:              1

  Minimum eigenvalue in the overlap matrix is 1.5022791006E-04.
  Using Symmetric Orthogonalization.

  SCF Guess: Superposition of Atomic Densities via on-the-fly atomic UHF.

  ==> Iterations <==

                        Total Energy        Delta E     RMS |[F,P]|

   @RHF iter SAD:  -107.20791279348951   -1.07208e+02   0.00000e+00 
   @RHF iter   1:  -105.72656725445347    1.48135e+00   7.15665e-03 DIIS
   @RHF iter   2:  -105.78044446658970   -5.38772e-02   3.54505e-03 DIIS
   @RHF iter   3:  -105.79364698448381   -1.32025e-02   6.92077e-04 SOSCF, nmicro=5
   @RHF iter   4:  -105.79446381357369   -8.16829e-04   4.61942e-06 SOSCF, nmicro=5
   @RHF iter   5:  -105.79446387757238   -6.39987e-08   2.91929e-08 SOSCF, nmicro=5
   @RHF iter   6:  -105.79446387757439   -2.00373e-12   3.13672e-10 SOSCF, nmicro=conv
  Energy and wave function converged.


  ==> Post-Iterations <==

    Orbital Energies [Eh]
    ---------------------

    Doubly Occupied:                                                      

       1Ap   -21.343458     2Ap    -2.580227     3Ap    -2.202804  
       4Ap    -1.798308     1App   -1.761684     5Ap    -1.755190  
       2App   -1.525888     6Ap    -1.348774     7Ap    -1.328307  

    Virtual:                                                              

       8Ap    -0.575770     3App   -0.573393     9Ap    -0.557979  
       4App   -0.553213    10Ap    -0.517908    11Ap    -0.444070  
       5App   -0.441993    12Ap    -0.433258    13Ap    -0.429619  
       6App   -0.367797    14Ap    -0.308454    15Ap    -0.301446  
      16Ap    -0.287890    17Ap    -0.285764     7App   -0.283992  
      18Ap    -0.253464     8App   -0.251939    19Ap    -0.247638  
      20Ap    -0.240088     9App   -0.236702    21Ap    -0.221663  
      10App   -0.216103    22Ap    -0.209795    11App   -0.154839  
      23Ap    -0.104456    12App   -0.083572    24Ap    -0.071870  
      25Ap    -0.070339    13App   -0.048095    26Ap    -0.022945  
      14App    0.000458    27Ap     0.014038    15App    0.041945  
      28Ap     0.049492    29Ap     0.095743    16App    0.099301  
      30Ap     0.102971    31Ap     0.192670    17App    0.194749  
      32Ap     0.206468    18App    0.223981    33Ap     0.334507  
      34Ap     0.353210    19App    0.385942    35Ap     0.438410  
      36Ap     0.587132    37Ap     0.654423    20App    0.784941  
      38Ap     0.832485    21App    1.201817    22App    1.307865  
      39Ap     1.328067    40Ap     1.434223    41Ap     1.478100  
      23App    1.584091    42Ap     1.758207    24App    1.907448  
      43Ap     2.078502    44Ap     2.527729    25App    2.588633  
      45Ap     2.864356    46Ap     3.261580    26App    3.584002  
      47Ap    11.168760    48Ap    33.042992  

    Final Occupation by Irrep:
             Ap   App 
    DOCC [     7,    2 ]

  @RHF Final Energy:  -105.79446387757439

   => Energetics <=

    Nuclear Repulsion Energy =             40.0106724958831279
    One-Electron Energy =                -220.3209934341293490
    Two-Electron Energy =                  74.5158570606718200
    Total Energy =                       -105.7944638775743869

Computation Completed


Properties will be evaluated at   0.000000,   0.000000,   0.000000 [a0]

Properties computed using the SCF density matrix

  Nuclear Dipole Moment: [e a0]
     X:     3.7743      Y:    27.1432      Z:     0.0000

  Electronic Dipole Moment: [e a0]
     X:    -3.5289      Y:   -25.4889      Z:     0.0000

  Dipole Moment: [e a0]
     X:     0.2453      Y:     1.6543      Z:     0.0000     Total:     1.6724

  Dipole Moment: [D]
     X:     0.6236      Y:     4.2049      Z:     0.0000     Total:     4.2508


*** tstop() called on node75.bme.utexas.edu at Mon Feb 28 03:06:54 2022
Module time:
	user time   =       3.49 seconds =       0.06 minutes
	system time =       0.02 seconds =       0.00 minutes
	total time  =          4 seconds =       0.07 minutes
Total time:
	user time   =      20.32 seconds =       0.34 minutes
	system time =       0.13 seconds =       0.00 minutes
	total time  =         21 seconds =       0.35 minutes
 MINTS: Wrapper to libmints.
   by Justin Turney

   Calculation information:
      Number of threads:                 1
      Number of atoms:                   4
      Number of AO shells:              30
      Number of SO shells:              26
      Number of primitives:             47
      Number of atomic orbitals:        81
      Number of basis functions:        74

      Number of irreps:                  2
      Integral cutoff                 0.00e+00
      Number of functions per irrep: [  48   26 ]

 OEINTS: Overlap, kinetic, potential, dipole, and quadrupole integrals
         stored in file 35.

      Computing two-electron integrals...done
      Computed 1872944 non-zero two-electron integrals.
        Stored in file 33.


*** tstart() called on node75.bme.utexas.edu
*** at Mon Feb 28 03:06:56 2022


	Wfn Parameters:
	--------------------
	Wavefunction         = CCSD_T
	Number of irreps     = 2
	Number of MOs        = 74
	Number of active MOs = 74
	AO-Basis             = NONE
	Semicanonical        = false
	Reference            = RHF
	Print Level          = 1

	IRREP	# MOs	# FZDC	# DOCC	# SOCC	# VIRT	# FZVR
	-----	-----	------	------	------	------	------
	 Ap	   48	    0	    7	    0	    41	    0
	 App	   26	    0	    2	    0	    24	    0
	Transforming integrals...
	IWL integrals will be deleted.
	(OO|OO)...
	Presorting SO-basis two-electron integrals.
	Sorting File: SO Ints (nn|nn) nbuckets = 1
	Transforming the one-electron integrals and constructing Fock matrices
	Starting first half-transformation.
	Sorting half-transformed integrals.
	First half integral transformation complete.
	Starting second half-transformation.
	Two-electron integral transformation complete.
	(OO|OV)...
	Starting second half-transformation.
	Two-electron integral transformation complete.
	(OO|VV)...
	Starting second half-transformation.
	Two-electron integral transformation complete.
	(OV|OO)...
	Starting first half-transformation.
	Sorting half-transformed integrals.
	First half integral transformation complete.
	Starting second half-transformation.
	Two-electron integral transformation complete.
	(OV|OV)...
	Starting second half-transformation.
	Two-electron integral transformation complete.
	(OV|VV)...
	Starting second half-transformation.
	Two-electron integral transformation complete.
	(VV|OO)...
	Starting first half-transformation.
	Sorting half-transformed integrals.
	First half integral transformation complete.
	Starting second half-transformation.
	Two-electron integral transformation complete.
	(VV|OV)...
	Starting second half-transformation.
	Two-electron integral transformation complete.
	(VV|VV)...
	Starting second half-transformation.
	Two-electron integral transformation complete.
	Frozen core energy     =      0.00000000000000

	Size of irrep 0 of <ab|cd> integrals:      5.094 (MW) /     40.752 (MB)
	Size of irrep 1 of <ab|cd> integrals:      3.873 (MW) /     30.984 (MB)
	Total:                                     8.967 (MW) /     71.737 (MB)

	Size of irrep 0 of <ia|bc> integrals:      0.756 (MW) /      6.049 (MB)
	Size of irrep 1 of <ia|bc> integrals:      0.492 (MW) /      3.936 (MB)
	Total:                                     1.248 (MW) /      9.985 (MB)

	Size of irrep 0 of tijab amplitudes:       0.120 (MW) /      0.957 (MB)
	Size of irrep 1 of tijab amplitudes:       0.055 (MW) /      0.441 (MB)
	Total:                                     0.175 (MW) /      1.398 (MB)

	Nuclear Rep. energy          =     40.01067249588313
	SCF energy                   =   -105.79446387757439
	One-electron energy          =   -220.32099346326171
	Two-electron energy          =     74.51585708980440
	Reference energy             =   -105.79446387757419

*** tstop() called on node75.bme.utexas.edu at Mon Feb 28 03:06:57 2022
Module time:
	user time   =       0.83 seconds =       0.01 minutes
	system time =       0.35 seconds =       0.01 minutes
	total time  =          1 seconds =       0.02 minutes
Total time:
	user time   =      22.75 seconds =       0.38 minutes
	system time =       0.50 seconds =       0.01 minutes
	total time  =         24 seconds =       0.40 minutes
            **************************
            *                        *
            *        CCENERGY        *
            *                        *
            **************************

    Nuclear Rep. energy (wfn)     =   40.010672495883128
    SCF energy          (wfn)     = -105.794463877574387
    Reference energy    (file100) = -105.794463877574188

    Input parameters:
    -----------------
    Wave function   =     CCSD_T
    Reference wfn   =     RHF
    Brueckner       =     No
    Memory (Mbytes) =     50000.0
    Maxiter         =     50
    R_Convergence   =     1.0e-07
    E_Convergence   =     1.0e-06
    Restart         =     Yes
    DIIS            =     Yes
    AO Basis        =     NONE
    ABCD            =     NEW
    Cache Level     =     2
    Cache Type      =     LOW
    Print Level     =     1
    Num. of threads =     1
    # Amps to Print =     10
    Print MP2 Amps? =     No
    Analyze T2 Amps =     No
    Print Pair Ener =     No
    Local CC        =     No
    SCS-MP2         =     False
    SCSN-MP2        =     False
    SCS-CCSD        =     False

MP2 correlation energy -0.3160417761304715
                Solving CC Amplitude Equations
                ------------------------------
  Iter             Energy              RMS        T1Diag      D1Diag    New D1Diag    D2Diag
  ----     ---------------------    ---------   ----------  ----------  ----------   --------
     0        -0.316041776130472    0.000e+00    0.000000    0.000000    0.000000    0.112039
     1        -0.319175518104905    4.042e-02    0.006674    0.018974    0.018974    0.113393
     2        -0.324611183417800    1.254e-02    0.006585    0.018216    0.018216    0.117470
     3        -0.325842009761069    4.877e-03    0.007467    0.021538    0.021538    0.118679
     4        -0.325804265876537    1.019e-03    0.007595    0.022171    0.022171    0.118834
     5        -0.325820857715906    3.714e-04    0.007644    0.022502    0.022502    0.118874
     6        -0.325825125175941    9.453e-05    0.007656    0.022595    0.022595    0.118870
     7        -0.325823023838435    2.873e-05    0.007658    0.022616    0.022616    0.118864
     8        -0.325822661363964    6.312e-06    0.007659    0.022620    0.022620    0.118863
     9        -0.325822686978670    1.654e-06    0.007659    0.022621    0.022621    0.118863
    10        -0.325822600979989    4.788e-07    0.007659    0.022621    0.022621    0.118863
    11        -0.325822609140243    1.384e-07    0.007659    0.022621    0.022621    0.118863
    12        -0.325822605897284    4.705e-08    0.007659    0.022621    0.022621    0.118863

    Iterations converged.


    Largest TIA Amplitudes:
              5   2         0.0194195505
              6   4         0.0071998862
              5   5        -0.0067014181
              4   5         0.0058048575
              5  13        -0.0057778160
              2   3        -0.0055997394
              8  44        -0.0054431451
              4  24         0.0050371909
              7  43        -0.0049501310
              8  62        -0.0046438524

    Largest TIjAb Amplitudes:
      5   5  30  30        -0.0251760962
      4   4  41  41        -0.0248495262
      7   7  42  42        -0.0246935883
      7   7   0   0        -0.0246117265
      7   7  41  41        -0.0238140506
      4   4   2   2        -0.0225465341
      5   5   2   2        -0.0214035233
      4   4   0   0        -0.0202974302
      3   3  42  42        -0.0164134997
      4   7   2  42         0.0155088211

    SCF energy       (wfn)                    = -105.794463877574387
    Reference energy (file100)                = -105.794463877574188

    Opposite-spin MP2 correlation energy      =   -0.229154741601926
    Same-spin MP2 correlation energy          =   -0.086887034528546
    MP2 correlation energy                    =   -0.316041776130472
      * MP2 total energy                      = -106.110505653704664

    Opposite-spin CCSD correlation energy     =   -0.245823238489734
    Same-spin CCSD correlation energy         =   -0.079999367407549
    CCSD correlation energy                   =   -0.325822605897284
      * CCSD total energy                     = -106.120286483471475

            **************************
            *                        *
            *        CCTRIPLES       *
            *                        *
            **************************


    Wave function   =    CCSD_T
    Reference wfn   =      RHF

    Nuclear Rep. energy (wfn)                =   40.010672495883128
    SCF energy          (wfn)                = -105.794463877574387
    Reference energy    (file100)            = -105.794463877574188
    CCSD energy         (file100)            =   -0.325822605897284
    Total CCSD energy   (file100)            = -106.120286483471475

    Number of ijk index combinations:              165
    Memory available in words        :      6250000000
    ~Words needed per explicit thread:          275684
    Number of threads for explicit ijk threading:    1

    MKL num_threads set to 1 for explicit threading.

    (T) energy                                =   -0.007320899890174
      * CCSD(T) total energy                  = -106.127607383361649


  //>>>>>>>>>>>>>>>>>>>>>>>>>>>>>>>>>>>>>>>//
  // CBS Computation: CCSD(T) / DEF2-TZVPD //
  //<<<<<<<<<<<<<<<<<<<<<<<<<<<<<<<<<<<<<<<//


*** tstart() called on node75.bme.utexas.edu
*** at Mon Feb 28 03:07:08 2022

   => Loading Basis Set <=

    Name: DEF2-TZVPD
    Role: ORBITAL
    Keyword: BASIS
    atoms 1   entry LA         line  2525 (ECP: line  3764) file /home/jtg2769/poltype/miniconda3/envs/p4env/share/psi4/basis/def2-tzvpd.gbs 
    atoms 2   entry O          line   208 file /home/jtg2769/poltype/miniconda3/envs/p4env/share/psi4/basis/def2-tzvpd.gbs 
    atoms 3-4 entry H          line    14 file /home/jtg2769/poltype/miniconda3/envs/p4env/share/psi4/basis/def2-tzvpd.gbs 

    !!!  WARNING: ECP capability is in beta. Please check occupations closely.  !!!


         ---------------------------------------------------------
                                   SCF
               by Justin Turney, Rob Parrish, Andy Simmonett
                          and Daniel G. A. Smith
                              RHF Reference
                        1 Threads,  47683 MiB Core
         ---------------------------------------------------------

  ==> Geometry <==

    Molecular point group: cs
    Full point group: Cs

    Geometry (in Angstrom), charge = 3, multiplicity = 1:

       Center              X                  Y                   Z               Mass       
    ------------   -----------------  -----------------  -----------------  -----------------
         LA          -0.028987805830    -0.209360831790     0.000000000000   138.906356300000
         O            0.213349194170     1.548675168210     0.000000000000    15.994914619570
         H            0.304660194170     2.138577168210     0.761699000000     1.007825032230
         H            0.304660194170     2.138577168210    -0.761699000000     1.007825032230

  Running in cs symmetry.

  Rotational constants: A =     14.41301  B =      0.30818  C =      0.30173 [cm^-1]
  Rotational constants: A = 432091.24039  B =   9238.91478  C =   9045.55722 [MHz]
  Nuclear repulsion =   40.010672495883128

  Charge       = 3
  Multiplicity = 1
  Electrons    = 18
  Nalpha       = 9
  Nbeta        = 9

  ==> Algorithm <==

  SCF Algorithm Type is PK.
  DIIS enabled.
  MOM disabled.
  Fractional occupation disabled.
  Guess Type is SAD.
  Energy threshold   = 1.00e-08
  Density threshold  = 1.00e-08
  Integral threshold = 0.00e+00

  ==> Primary Basis <==

  Basis Set: DEF2-TZVPD
    Blend: DEF2-TZVPD
    Number of shells: 39
    Number of basis function: 101
    Number of Cartesian functions: 113
    Spherical Harmonics?: true
    Max angular momentum: 3

  Core potential: DEF2-TZVPD
    Number of shells: 4
    Number of ECP primitives: 10
    Number of ECP core electrons: 46
    Max angular momentum: 3

  ==> Pre-Iterations <==

   -------------------------------------------------------
    Irrep   Nso     Nmo     Nalpha   Nbeta   Ndocc  Nsocc
   -------------------------------------------------------
     A'        65      65       0       0       0       0
     A"        36      36       0       0       0       0
   -------------------------------------------------------
    Total     101     101       9       9       9       0
   -------------------------------------------------------

  ==> Integral Setup <==

  Using in-core PK algorithm.
   Calculation information:
      Number of atoms:                   4
      Number of AO shells:              39
      Number of primitives:             58
      Number of atomic orbitals:       113
      Number of basis functions:       101

      Integral cutoff                 1.00e-12
      Number of threads:                 1

  Performing in-core PK
  Using 26537952 doubles for integral storage.
  We computed 303304 shell quartets total.
  Whereas there are 304590 unique shell quartets.

  ==> DiskJK: Disk-Based J/K Matrices <==

    J tasked:                  Yes
    K tasked:                  Yes
    wK tasked:                  No
    Memory [MiB]:            35762
    Schwarz Cutoff:          1E-12

    OpenMP threads:              1

  Minimum eigenvalue in the overlap matrix is 2.5010718699E-04.
  Using Symmetric Orthogonalization.

  SCF Guess: Superposition of Atomic Densities via on-the-fly atomic UHF.

  ==> Iterations <==

                        Total Energy        Delta E     RMS |[F,P]|

   @RHF iter SAD:  -107.22771589876436   -1.07228e+02   0.00000e+00 
   @RHF iter   1:  -105.82621027539057    1.40151e+00   5.97017e-03 DIIS
   @RHF iter   2:  -105.88582560465677   -5.96153e-02   3.03418e-03 DIIS
   @RHF iter   3:  -105.90197014074528   -1.61445e-02   5.30127e-04 SOSCF, nmicro=5
   @RHF iter   4:  -105.90288564725950   -9.15507e-04   3.93569e-06 SOSCF, nmicro=5
   @RHF iter   5:  -105.90288572907781   -8.18183e-08   3.39292e-08 SOSCF, nmicro=5
   @RHF iter   6:  -105.90288572908159   -3.78009e-12   4.34772e-10 SOSCF, nmicro=conv
  Energy and wave function converged.


  ==> Post-Iterations <==

    Orbital Energies [Eh]
    ---------------------

    Doubly Occupied:                                                      

       1Ap   -21.349135     2Ap    -2.571257     3Ap    -2.212643  
       4Ap    -1.791131     1App   -1.754516     5Ap    -1.748443  
       2App   -1.519988     6Ap    -1.345908     7Ap    -1.325484  

    Virtual:                                                              

       8Ap    -0.572433     3App   -0.569945     9Ap    -0.555610  
       4App   -0.547560    10Ap    -0.513202    11Ap    -0.446435  
       5App   -0.440694    12Ap    -0.433062    13Ap    -0.427376  
       6App   -0.368874    14Ap    -0.315870    15Ap    -0.310038  
      16Ap    -0.295736    17Ap    -0.289904     7App   -0.286560  
      18Ap    -0.259147     8App   -0.251850    19Ap    -0.247563  
      20Ap    -0.242212     9App   -0.234723    10App   -0.234106  
      21Ap    -0.223359    22Ap    -0.215112    11App   -0.194323  
      23Ap    -0.140130    12App   -0.129552    24Ap    -0.125353  
      25Ap    -0.120585    13App   -0.100862    26Ap    -0.078289  
      14App   -0.039158    27Ap    -0.028183    28Ap    -0.021866  
      15App    0.003886    29Ap     0.015679    16App    0.021977  
      30Ap     0.039769    17App    0.053694    31Ap     0.057503  
      32Ap     0.091055    33Ap     0.138584    18App    0.163674  
      34Ap     0.203269    19App    0.211006    35Ap     0.219429  
      36Ap     0.233938    20App    0.242568    37Ap     0.253386  
      38Ap     0.292575    21App    0.346400    39Ap     0.357609  
      40Ap     0.401627    22App    0.472565    23App    0.480807  
      41Ap     0.514636    42Ap     0.644125    43Ap     0.976488  
      24App    1.075649    44Ap     1.178035    45Ap     1.222412  
      25App    1.265954    46Ap     1.482071    26App    1.609720  
      47Ap     1.643886    27App    1.675611    48Ap     2.003338  
      49Ap     2.212773    28App    2.235204    29App    2.375093  
      50Ap     2.465535    51Ap     2.569401    52Ap     2.859106  
      53Ap     3.442898    30App    3.620797    54Ap     4.753217  
      55Ap     4.924411    56Ap     5.019341    31App    5.043994  
      32App    5.052420    33App    5.761569    57Ap     5.978984  
      34App    6.197203    58Ap     6.222681    59Ap     6.491683  
      60Ap     6.604408    35App    6.831256    61Ap    11.374856  
      62Ap    11.535947    36App   11.594860    63Ap    12.314802  
      64Ap    33.163479    65Ap    44.593752  

    Final Occupation by Irrep:
             Ap   App 
    DOCC [     7,    2 ]

  @RHF Final Energy:  -105.90288572908159

   => Energetics <=

    Nuclear Repulsion Energy =             40.0106724958831279
    One-Electron Energy =                -220.5901050941472477
    Two-Electron Energy =                  74.6765468691825447
    Total Energy =                       -105.9028857290815893

Computation Completed


Properties will be evaluated at   0.000000,   0.000000,   0.000000 [a0]

Properties computed using the SCF density matrix

  Nuclear Dipole Moment: [e a0]
     X:     3.7743      Y:    27.1432      Z:     0.0000

  Electronic Dipole Moment: [e a0]
     X:    -3.5256      Y:   -25.4638      Z:     0.0000

  Dipole Moment: [e a0]
     X:     0.2486      Y:     1.6794      Z:     0.0000     Total:     1.6977

  Dipole Moment: [D]
     X:     0.6320      Y:     4.2686      Z:     0.0000     Total:     4.3152


*** tstop() called on node75.bme.utexas.edu at Mon Feb 28 03:07:15 2022
Module time:
	user time   =       7.26 seconds =       0.12 minutes
	system time =       0.09 seconds =       0.00 minutes
	total time  =          7 seconds =       0.12 minutes
Total time:
	user time   =      32.82 seconds =       0.55 minutes
	system time =       2.07 seconds =       0.03 minutes
	total time  =         42 seconds =       0.70 minutes
 MINTS: Wrapper to libmints.
   by Justin Turney

   Calculation information:
      Number of threads:                 1
      Number of atoms:                   4
      Number of AO shells:              39
      Number of SO shells:              34
      Number of primitives:             58
      Number of atomic orbitals:       113
      Number of basis functions:       101

      Number of irreps:                  2
      Integral cutoff                 0.00e+00
      Number of functions per irrep: [  65   36 ]

 OEINTS: Overlap, kinetic, potential, dipole, and quadrupole integrals
         stored in file 35.

      Computing two-electron integrals...done
      Computed 6451044 non-zero two-electron integrals.
        Stored in file 33.


*** tstart() called on node75.bme.utexas.edu
*** at Mon Feb 28 03:07:19 2022


	Wfn Parameters:
	--------------------
	Wavefunction         = CCSD_T
	Number of irreps     = 2
	Number of MOs        = 101
	Number of active MOs = 101
	AO-Basis             = NONE
	Semicanonical        = false
	Reference            = RHF
	Print Level          = 1

	IRREP	# MOs	# FZDC	# DOCC	# SOCC	# VIRT	# FZVR
	-----	-----	------	------	------	------	------
	 Ap	   65	    0	    7	    0	    58	    0
	 App	   36	    0	    2	    0	    34	    0
	Transforming integrals...
	IWL integrals will be deleted.
	(OO|OO)...
	Presorting SO-basis two-electron integrals.
	Sorting File: SO Ints (nn|nn) nbuckets = 1
	Transforming the one-electron integrals and constructing Fock matrices
	Starting first half-transformation.
	Sorting half-transformed integrals.
	First half integral transformation complete.
	Starting second half-transformation.
	Two-electron integral transformation complete.
	(OO|OV)...
	Starting second half-transformation.
	Two-electron integral transformation complete.
	(OO|VV)...
	Starting second half-transformation.
	Two-electron integral transformation complete.
	(OV|OO)...
	Starting first half-transformation.
	Sorting half-transformed integrals.
	First half integral transformation complete.
	Starting second half-transformation.
	Two-electron integral transformation complete.
	(OV|OV)...
	Starting second half-transformation.
	Two-electron integral transformation complete.
	(OV|VV)...
	Starting second half-transformation.
	Two-electron integral transformation complete.
	(VV|OO)...
	Starting first half-transformation.
	Sorting half-transformed integrals.
	First half integral transformation complete.
	Starting second half-transformation.
	Two-electron integral transformation complete.
	(VV|OV)...
	Starting second half-transformation.
	Two-electron integral transformation complete.
	(VV|VV)...
	Starting second half-transformation.
	Two-electron integral transformation complete.
	Frozen core energy     =      0.00000000000000

	Size of irrep 0 of <ab|cd> integrals:     20.430 (MW) /    163.443 (MB)
	Size of irrep 1 of <ab|cd> integrals:     15.555 (MW) /    124.441 (MB)
	Total:                                    35.986 (MW) /    287.884 (MB)

	Size of irrep 0 of <ia|bc> integrals:      2.142 (MW) /     17.140 (MB)
	Size of irrep 1 of <ia|bc> integrals:      1.396 (MW) /     11.169 (MB)
	Total:                                     3.539 (MW) /     28.309 (MB)

	Size of irrep 0 of tijab amplitudes:       0.240 (MW) /      1.916 (MB)
	Size of irrep 1 of tijab amplitudes:       0.110 (MW) /      0.883 (MB)
	Total:                                     0.350 (MW) /      2.800 (MB)

	Nuclear Rep. energy          =     40.01067249588313
	SCF energy                   =   -105.90288572908159
	One-electron energy          =   -220.59010516881747
	Two-electron energy          =     74.67654694385305
	Reference energy             =   -105.90288572908129

*** tstop() called on node75.bme.utexas.edu at Mon Feb 28 03:07:24 2022
Module time:
	user time   =       3.02 seconds =       0.05 minutes
	system time =       1.31 seconds =       0.02 minutes
	total time  =          5 seconds =       0.08 minutes
Total time:
	user time   =      39.11 seconds =       0.65 minutes
	system time =       3.45 seconds =       0.06 minutes
	total time  =         51 seconds =       0.85 minutes
            **************************
            *                        *
            *        CCENERGY        *
            *                        *
            **************************

    Nuclear Rep. energy (wfn)     =   40.010672495883128
    SCF energy          (wfn)     = -105.902885729081589
    Reference energy    (file100) = -105.902885729081291

    Input parameters:
    -----------------
    Wave function   =     CCSD_T
    Reference wfn   =     RHF
    Brueckner       =     No
    Memory (Mbytes) =     50000.0
    Maxiter         =     50
    R_Convergence   =     1.0e-07
    E_Convergence   =     1.0e-06
    Restart         =     Yes
    DIIS            =     Yes
    AO Basis        =     NONE
    ABCD            =     NEW
    Cache Level     =     2
    Cache Type      =     LOW
    Print Level     =     1
    Num. of threads =     1
    # Amps to Print =     10
    Print MP2 Amps? =     No
    Analyze T2 Amps =     No
    Print Pair Ener =     No
    Local CC        =     No
    SCS-MP2         =     False
    SCSN-MP2        =     False
    SCS-CCSD        =     False

MP2 correlation energy -0.4069100709134428
                Solving CC Amplitude Equations
                ------------------------------
  Iter             Energy              RMS        T1Diag      D1Diag    New D1Diag    D2Diag
  ----     ---------------------    ---------   ----------  ----------  ----------   --------
     0        -0.406910070913443    0.000e+00    0.000000    0.000000    0.000000    0.116573
     1        -0.409908210961769    3.889e-02    0.005709    0.016149    0.016149    0.117634
     2        -0.416124524390949    1.202e-02    0.005591    0.015379    0.015379    0.121583
     3        -0.417315680179447    4.415e-03    0.006312    0.018199    0.018199    0.122634
     4        -0.417225993511653    9.682e-04    0.006417    0.018667    0.018667    0.122772
     5        -0.417247317119849    3.736e-04    0.006473    0.019015    0.019015    0.122817
     6        -0.417251433666726    9.101e-05    0.006486    0.019105    0.019105    0.122809
     7        -0.417249504640833    2.851e-05    0.006489    0.019124    0.019124    0.122804
     8        -0.417249113706168    6.659e-06    0.006489    0.019129    0.019129    0.122804
     9        -0.417249116539106    1.585e-06    0.006489    0.019129    0.019129    0.122804
    10        -0.417249023822567    4.617e-07    0.006489    0.019129    0.019129    0.122803
    11        -0.417249036627343    1.302e-07    0.006489    0.019129    0.019129    0.122803
    12        -0.417249032189660    4.436e-08    0.006489    0.019129    0.019129    0.122803

    Iterations converged.


    Largest TIA Amplitudes:
              5   2         0.0161330852
              5   5         0.0058583375
              5  42         0.0050861334
              8  84         0.0048802452
              6   4         0.0045124508
              8  59        -0.0044071191
              3   7         0.0039171355
              4   5         0.0039088400
              2   3        -0.0038519669
              5  13         0.0036672140

    Largest TIjAb Amplitudes:
      4   4  58  58        -0.0243410886
      7   7   0   0        -0.0239526984
      7   7  59  59        -0.0238462807
      7   7  58  58        -0.0233345100
      4   4   2   2        -0.0217820045
      5   5   2   2        -0.0202460369
      4   4   0   0        -0.0196241767
      3   3  59  59        -0.0161816448
      4   7   2  59        -0.0148633797
      7   4  59   2        -0.0148633797

    SCF energy       (wfn)                    = -105.902885729081589
    Reference energy (file100)                = -105.902885729081291

    Opposite-spin MP2 correlation energy      =   -0.300968323760354
    Same-spin MP2 correlation energy          =   -0.105941747153089
    MP2 correlation energy                    =   -0.406910070913443
      * MP2 total energy                      = -106.309795799994731

    Opposite-spin CCSD correlation energy     =   -0.319737534033408
    Same-spin CCSD correlation energy         =   -0.097511498156251
    CCSD correlation energy                   =   -0.417249032189660
      * CCSD total energy                     = -106.320134761270950

            **************************
            *                        *
            *        CCTRIPLES       *
            *                        *
            **************************


    Wave function   =    CCSD_T
    Reference wfn   =      RHF

    Nuclear Rep. energy (wfn)                =   40.010672495883128
    SCF energy          (wfn)                = -105.902885729081589
    Reference energy    (file100)            = -105.902885729081291
    CCSD energy         (file100)            =   -0.417249032189660
    Total CCSD energy   (file100)            = -106.320134761270950

    Number of ijk index combinations:              165
    Memory available in words        :      6250000000
    ~Words needed per explicit thread:          780448
    Number of threads for explicit ijk threading:    1

    MKL num_threads set to 1 for explicit threading.

    (T) energy                                =   -0.010899651563642
      * CCSD(T) total energy                  = -106.331034412834597


  //>>>>>>>>>>>>>>>>>>>>>>>>>>>>>>>>>>>//
  //    CBS Results: custom function   //
  //<<<<<<<<<<<<<<<<<<<<<<<<<<<<<<<<<<<//


   ==> HF <==

   HI-zeta (4) Energy:               -105.922133821014


   ==> Helgaker 2-point correlated extrapolation for method: MP2 <==

   LO-zeta (3) Energy:               -106.309795799995
   HI-zeta (4) Energy:               -106.410290776687
   Alpha (exponent) Value:             3.000000000000
   Extrapolated Energy:              -106.483624948867

   @Extrapolated MP2/(T,Q):          -106.483624948867



   ==> Helgaker 2-point correlated extrapolation for method: HF <==

   LO-zeta (3) Energy:               -105.902885729082
   HI-zeta (4) Energy:               -105.922133821014
   Alpha (exponent) Value:             3.000000000000
   Extrapolated Energy:              -105.936179725938

   @Extrapolated HF/(T,Q):           -105.936179725938



   ==> Helgaker 2-point correlated extrapolation for method: CCSD(T) <==

   LO-zeta (2) Energy:               -106.127607383362
   HI-zeta (3) Energy:               -106.331034412835
   Alpha (exponent) Value:             3.000000000000
   Extrapolated Energy:              -106.416687898928

   @Extrapolated CCSD(T)/(D,T):      -106.416687898928



   ==> Helgaker 2-point correlated extrapolation for method: MP2 <==

   LO-zeta (2) Energy:               -106.110505653705
   HI-zeta (3) Energy:               -106.309795799995
   Alpha (exponent) Value:             3.000000000000
   Extrapolated Energy:              -106.393707440538

   @Extrapolated MP2/(D,T):          -106.393707440538


   ==> Components <==

  ---------------------------------------------------------------------------------------------------------
                          Method / Basis                      Rqd      Energy [Eh]   Variable
  ---------------------------------------------------------------------------------------------------------
                              hf / def2-qzvpd                   *    -105.92213382   HF TOTAL ENERGY
                             mp2 / def2-qzvpd                   *    -106.41029078   MP2 TOTAL ENERGY
                              hf / def2-svpd                         -105.79446388   HF TOTAL ENERGY
                             mp2 / def2-svpd                    *    -106.11050565   MP2 TOTAL ENERGY
                            ccsd / def2-svpd                         -106.12028648   CCSD TOTAL ENERGY
                         ccsd(t) / def2-svpd                    *    -106.12760738   CCSD(T) TOTAL ENERGY
                              hf / def2-tzvpd                   *    -105.90288573   HF TOTAL ENERGY
                             mp2 / def2-tzvpd                   *    -106.30979580   MP2 TOTAL ENERGY
                            ccsd / def2-tzvpd                        -106.32013476   CCSD TOTAL ENERGY
                         ccsd(t) / def2-tzvpd                   *    -106.33103441   CCSD(T) TOTAL ENERGY
  ---------------------------------------------------------------------------------------------------------

   ==> Stages <==

  ---------------------------------------------------------------------------------------------------------
      Stage               Method / Basis                       Wt      Energy [Eh]   Scheme
  ---------------------------------------------------------------------------------------------------------
        scf                   hf / def2-qzvpd                   1    -105.92213382   xtpl_highest_1
       corl                  mp2 / def2-[tq]zvpd                1    -106.48362495   corl_xtpl_helgaker_2
       corl                   hf / def2-[tq]zvpd               -1    -105.93617973   corl_xtpl_helgaker_2
     delta1              ccsd(t) / def2-[st]zvpd                1    -106.41668790   corl_xtpl_helgaker_2
     delta1                  mp2 / def2-[st]zvpd               -1    -106.39370744   corl_xtpl_helgaker_2
  ---------------------------------------------------------------------------------------------------------

   ==> CBS <==

  ---------------------------------------------------------------------------------------------------------
      Stage               Method / Basis                               Energy [Eh]   Scheme
  ---------------------------------------------------------------------------------------------------------
        scf                   hf / def2-qzvpd                        -105.92213382   xtpl_highest_1
       corl                  mp2 / def2-[tq]zvpd                       -0.54744522   corl_xtpl_helgaker_2
     delta1        ccsd(t) - mp2 / def2-[st]zvpd                       -0.02298046   corl_xtpl_helgaker_2
      total                  CBS                                     -106.49255950   
  ---------------------------------------------------------------------------------------------------------
   => Loading Basis Set <=

    Name: DEF2-SVP
    Role: ORBITAL
    Keyword: BASIS
    atoms 1   entry LA         line  1831 (ECP: line  2906) file /home/jtg2769/poltype/miniconda3/envs/p4env/share/psi4/basis/def2-svp.gbs 
    atoms 2   entry O          line   130 file /home/jtg2769/poltype/miniconda3/envs/p4env/share/psi4/basis/def2-svp.gbs 
    atoms 3-4 entry H          line    15 file /home/jtg2769/poltype/miniconda3/envs/p4env/share/psi4/basis/def2-svp.gbs 

    !!!  WARNING: ECP capability is in beta. Please check occupations closely.  !!!


    Psi4 stopped on: Monday, 28 February 2022 03:07AM
    Psi4 wall time for execution: 0:01:10.21

*** Psi4 exiting successfully. Buy a developer a beer!
