
    -----------------------------------------------------------------------
          Psi4: An Open-Source Ab Initio Electronic Structure Package
                               Psi4 1.4a2.dev78 

                         Git: Rev {master} e512d40 


    R. M. Parrish, L. A. Burns, D. G. A. Smith, A. C. Simmonett,
    A. E. DePrince III, E. G. Hohenstein, U. Bozkaya, A. Yu. Sokolov,
    R. Di Remigio, R. M. Richard, J. F. Gonthier, A. M. James,
    H. R. McAlexander, A. Kumar, M. Saitow, X. Wang, B. P. Pritchard,
    P. Verma, H. F. Schaefer III, K. Patkowski, R. A. King, E. F. Valeev,
    F. A. Evangelista, J. M. Turney, T. D. Crawford, and C. D. Sherrill,
    J. Chem. Theory Comput. 13(7) pp 3185--3197 (2017).
    (doi: 10.1021/acs.jctc.7b00174)


                         Additional Contributions by
    P. Kraus, H. Kruse, M. H. Lechner, M. C. Schieber, R. A. Shaw,
    A. Alenaizan, R. Galvelis, Z. L. Glick, S. Lehtola, and J. P. Misiewicz

    -----------------------------------------------------------------------


    Psi4 started on: Monday, 28 February 2022 03:16AM

    Process ID: 2397736
    Host:       node215.bme.utexas.edu
    PSIDATADIR: /home/jtg2769/poltype/miniconda3/envs/p4env/share/psi4
    Memory:     500.0 MiB
    Threads:    1
    
  ==> Input File <==

--------------------------------------------------------------------------
memory 50 GB
set basis def2-QZVPD
set soscf true
set fail_on_maxiter false
molecule{
	3 1
	La -0.038392 -0.277582 0.000000
	--
	0 1
	O 0.340499 2.471086 0.000000
	H 0.431810 3.060989 0.761699
	H 0.431810 3.060989 -0.761699
}

energy(cbs, corl_wfn='mp2',corl_basis='def2-[TQ]ZVPD', delta_wfn='ccsd(t)', delta_basis='def2-[DT]ZVPD')
--------------------------------------------------------------------------

  Memory set to  46.566 GiB by Python driver.

  //>>>>>>>>>>>>>>>>>>>>>>>>>>>>>>>>>>>//
  //     CBS Setup: custom function    //
  //<<<<<<<<<<<<<<<<<<<<<<<<<<<<<<<<<<<//

    Naive listing of computations required.
             hf / def2-qzvpd               for  HF TOTAL ENERGY
            mp2 / def2-tzvpd               for  MP2 TOTAL ENERGY
            mp2 / def2-qzvpd               for  MP2 TOTAL ENERGY
             hf / def2-tzvpd               for  HF TOTAL ENERGY
             hf / def2-qzvpd               for  HF TOTAL ENERGY
        ccsd(t) / def2-svpd                for  CCSD(T) TOTAL ENERGY
        ccsd(t) / def2-tzvpd               for  CCSD(T) TOTAL ENERGY
            mp2 / def2-svpd                for  MP2 TOTAL ENERGY
            mp2 / def2-tzvpd               for  MP2 TOTAL ENERGY

    Enlightened listing of computations required.
            mp2 / def2-qzvpd               for  MP2 TOTAL ENERGY
        ccsd(t) / def2-svpd                for  CCSD(T) TOTAL ENERGY
        ccsd(t) / def2-tzvpd               for  CCSD(T) TOTAL ENERGY

    Full listing of computations to be obtained (required and bonus).
             hf / def2-qzvpd               for  HF TOTAL ENERGY
            mp2 / def2-qzvpd               for  MP2 TOTAL ENERGY
             hf / def2-svpd                for  HF TOTAL ENERGY
            mp2 / def2-svpd                for  MP2 TOTAL ENERGY
           ccsd / def2-svpd                for  CCSD TOTAL ENERGY
        ccsd(t) / def2-svpd                for  CCSD(T) TOTAL ENERGY
             hf / def2-tzvpd               for  HF TOTAL ENERGY
            mp2 / def2-tzvpd               for  MP2 TOTAL ENERGY
           ccsd / def2-tzvpd               for  CCSD TOTAL ENERGY
        ccsd(t) / def2-tzvpd               for  CCSD(T) TOTAL ENERGY

  //>>>>>>>>>>>>>>>>>>>>>>>>>>>>>>>>>>>//
  // CBS Computation: MP2 / DEF2-QZVPD //
  //<<<<<<<<<<<<<<<<<<<<<<<<<<<<<<<<<<<//

    SCF Algorithm Type (re)set to DF.

*** tstart() called on node215.bme.utexas.edu
*** at Mon Feb 28 03:16:04 2022

   => Loading Basis Set <=

    Name: DEF2-QZVPD
    Role: ORBITAL
    Keyword: BASIS
    atoms 1   entry LA         line  3634 (ECP: line  5113) file /home/jtg2769/poltype/miniconda3/envs/p4env/share/psi4/basis/def2-qzvpd.gbs 
    atoms 2   entry O          line   305 file /home/jtg2769/poltype/miniconda3/envs/p4env/share/psi4/basis/def2-qzvpd.gbs 
    atoms 3-4 entry H          line    14 file /home/jtg2769/poltype/miniconda3/envs/p4env/share/psi4/basis/def2-qzvpd.gbs 

    !!!  WARNING: ECP capability is in beta. Please check occupations closely.  !!!


         ---------------------------------------------------------
                                   SCF
               by Justin Turney, Rob Parrish, Andy Simmonett
                          and Daniel G. A. Smith
                              RHF Reference
                        1 Threads,  47683 MiB Core
         ---------------------------------------------------------

  ==> Geometry <==

    Molecular point group: cs
    Full point group: Cs

    Geometry (in Angstrom), charge = 3, multiplicity = 1:

       Center              X                  Y                   Z               Mass       
    ------------   -----------------  -----------------  -----------------  -----------------
         LA          -0.044661161096    -0.323063315995     0.000000000000   138.906356300000
         O            0.334229838904     2.425604684005     0.000000000000    15.994914619570
         H            0.425540838904     3.015507684005     0.761699000000     1.007825032230
         H            0.425540838904     3.015507684005    -0.761699000000     1.007825032230

  Running in cs symmetry.

  Rotational constants: A =     14.41295  B =      0.13031  C =      0.12915 [cm^-1]
  Rotational constants: A = 432089.23884  B =   3906.69193  C =   3871.69634 [MHz]
  Nuclear repulsion =   29.247805520690331

  Charge       = 3
  Multiplicity = 1
  Electrons    = 18
  Nalpha       = 9
  Nbeta        = 9

  ==> Algorithm <==

  SCF Algorithm Type is DF.
  DIIS enabled.
  MOM disabled.
  Fractional occupation disabled.
  Guess Type is SAD.
  Energy threshold   = 1.00e-08
  Density threshold  = 1.00e-08
  Integral threshold = 0.00e+00

  ==> Primary Basis <==

  Basis Set: DEF2-QZVPD
    Blend: DEF2-QZVPD
    Number of shells: 62
    Number of basis function: 204
    Number of Cartesian functions: 249
    Spherical Harmonics?: true
    Max angular momentum: 4

  Core potential: DEF2-QZVPD
    Number of shells: 4
    Number of ECP primitives: 10
    Number of ECP core electrons: 46
    Max angular momentum: 3

   => Loading Basis Set <=

    Name: (DEF2-QZVPD AUX)
    Role: JKFIT
    Keyword: DF_BASIS_SCF
    atoms 1   entry LA         line  5333 file /home/jtg2769/poltype/miniconda3/envs/p4env/share/psi4/basis/def2-qzvp-jkfit.gbs 
    atoms 2   entry O          line   323 file /home/jtg2769/poltype/miniconda3/envs/p4env/share/psi4/basis/def2-qzvp-jkfit.gbs 
    atoms 3-4 entry H          line    23 file /home/jtg2769/poltype/miniconda3/envs/p4env/share/psi4/basis/def2-qzvp-jkfit.gbs 

  ==> Pre-Iterations <==

   -------------------------------------------------------
    Irrep   Nso     Nmo     Nalpha   Nbeta   Ndocc  Nsocc
   -------------------------------------------------------
     A'       122     122       0       0       0       0
     A"        82      82       0       0       0       0
   -------------------------------------------------------
    Total     204     204       9       9       9       0
   -------------------------------------------------------

  ==> Integral Setup <==

  DFHelper Memory: AOs need 0.118 GiB; user supplied 34.925 GiB. Using in-core AOs.

  ==> MemDFJK: Density-Fitted J/K Matrices <==

    J tasked:                   Yes
    K tasked:                   Yes
    wK tasked:                   No
    OpenMP threads:               1
    Memory [MiB]:             35762
    Algorithm:                 Core
    Schwarz Cutoff:           1E-12
    Mask sparsity (%):       0.5383
    Fitting Condition:        1E-10

   => Auxiliary Basis Set <=

  Basis Set: (DEF2-QZVPD AUX)
    Blend: DEF2-QZVP-JKFIT
    Number of shells: 82
    Number of basis function: 340
    Number of Cartesian functions: 474
    Spherical Harmonics?: true
    Max angular momentum: 6

  Minimum eigenvalue in the overlap matrix is 5.2337555364E-05.
  Using Symmetric Orthogonalization.

  SCF Guess: Superposition of Atomic Densities via on-the-fly atomic UHF.

  ==> Iterations <==

                           Total Energy        Delta E     RMS |[F,P]|

   @DF-RHF iter SAD:  -106.40196984991152   -1.06402e+02   0.00000e+00 
   @DF-RHF iter   1:  -105.95268250495391    4.49287e-01   3.18265e-03 DIIS
   @DF-RHF iter   2:  -106.02147381835756   -6.87913e-02   2.00347e-03 DIIS
   @DF-RHF iter   3:  -106.04817847417313   -2.67047e-02   2.10388e-04 SOSCF, nmicro=5
   @DF-RHF iter   4:  -106.04905254231724   -8.74068e-04   3.54795e-06 SOSCF, nmicro=5
   @DF-RHF iter   5:  -106.04905279880703   -2.56490e-07   6.45270e-08 SOSCF, nmicro=5
   @DF-RHF iter   6:  -106.04905279885963   -5.26086e-11   9.16078e-10 SOSCF, nmicro=conv
  Energy and wave function converged.


  ==> Post-Iterations <==

    Orbital Energies [Eh]
    ---------------------

    Doubly Occupied:                                                      

       1Ap   -21.125069     2Ap    -2.600446     3Ap    -1.904152  
       1App   -1.799057     4Ap    -1.798383     5Ap    -1.790390  
       2App   -1.261605     6Ap    -1.171825     7Ap    -1.069187  

    Virtual:                                                              

       8Ap    -0.607036     3App   -0.606970     4App   -0.599812  
       9Ap    -0.596014    10Ap    -0.590329    11Ap    -0.550018  
       5App   -0.450655    12Ap    -0.446659    13Ap    -0.412265  
      14Ap    -0.306871     6App   -0.298894     7App   -0.297134  
      15Ap    -0.296992    16Ap    -0.294354    17Ap    -0.292198  
      18Ap    -0.268995     8App   -0.262215    19Ap    -0.256111  
      20Ap    -0.250004     9App   -0.249950    10App   -0.245744  
      11App   -0.241554    21Ap    -0.241282    22Ap    -0.239399  
      23Ap    -0.234374    12App   -0.208339    24Ap    -0.184816  
      25Ap    -0.171882    26Ap    -0.170185    27Ap    -0.136379  
      13App   -0.125680    28Ap    -0.124359    14App   -0.118998  
      29Ap    -0.111297    15App   -0.110788    30Ap    -0.101837  
      16App   -0.098913    31Ap    -0.084723    32Ap    -0.056842  
      17App   -0.036993    18App   -0.022252    33Ap    -0.021115  
      34Ap     0.002810    19App    0.015325    35Ap     0.029967  
      36Ap     0.061993    20App    0.073632    37Ap     0.079439  
      21App    0.089127    38Ap     0.113283    39Ap     0.130462  
      22App    0.137568    40Ap     0.143980    23App    0.150892  
      41Ap     0.158824    42Ap     0.170652    43Ap     0.177856  
      44Ap     0.182625    24App    0.182799    25App    0.185813  
      45Ap     0.190021    26App    0.200047    46Ap     0.212682  
      47Ap     0.228229    27App    0.268969    28App    0.275001  
      48Ap     0.335605    49Ap     0.377498    29App    0.393438  
      50Ap     0.419248    30App    0.432860    51Ap     0.461965  
      52Ap     0.519445    53Ap     0.530594    31App    0.552540  
      32App    0.569042    33App    0.569325    54Ap     0.570945  
      55Ap     0.575268    56Ap     0.650024    34App    0.697779  
      57Ap     0.723753    35App    0.820499    58Ap     0.826244  
      59Ap     0.851826    60Ap     0.988157    61Ap     1.002893  
      36App    1.057698    62Ap     1.068575    37App    1.072737  
      38App    1.075276    63Ap     1.078414    39App    1.091988  
      64Ap     1.098381    40App    1.130349    65Ap     1.170367  
      66Ap     1.335873    41App    1.343725    67Ap     1.343905  
      68Ap     1.510926    69Ap     1.707644    42App    1.763359  
      70Ap     1.768360    71Ap     1.839375    43App    2.016501  
      44App    2.050131    72Ap     2.194424    45App    2.199756  
      46App    2.227046    47App    2.376362    73Ap     2.394179  
      74Ap     2.451982    48App    2.488374    75Ap     2.507680  
      76Ap     2.751419    49App    2.855928    50App    3.052243  
      77Ap     3.070096    78Ap     3.311843    79Ap     3.474764  
      51App    3.678230    80Ap     3.706666    81Ap     3.723959  
      52App    3.851221    82Ap     4.032028    83Ap     4.075465  
      84Ap     4.154670    53App    4.219391    54App    4.360416  
      55App    4.628138    85Ap     4.717456    86Ap     5.185974  
      87Ap     5.224159    56App    5.345405    88Ap     5.479523  
      57App    5.735675    89Ap     5.790917    58App    5.841594  
      59App    6.221254    90Ap     6.297071    60App    6.576020  
      91Ap     6.803948    61App    7.020676    92Ap     7.085411  
      62App    7.138731    93Ap     7.206819    63App    7.217454  
      64App    7.321576    94Ap     7.386429    95Ap     7.541755  
      96Ap     7.564756    65App    7.672074    97Ap     7.699664  
      98Ap     7.728846    66App    7.768663    67App    7.829213  
      99Ap     7.991623    68App    8.151181   100Ap     8.393148  
      69App    8.444901    70App    8.605550   101Ap     8.616613  
     102Ap     8.875129    71App    8.981284   103Ap     9.776730  
     104Ap     9.836938   105Ap    10.206493    72App   10.211314  
      73App   10.650380   106Ap    10.711792    74App   10.882394  
      75App   11.090774   107Ap    11.115997   108Ap    11.270018  
     109Ap    11.311942   110Ap    11.510714   111Ap    11.515096  
      76App   11.613323   112Ap    11.745778   113Ap    11.790796  
      77App   11.801071    78App   11.869205   114Ap    12.296748  
     115Ap    12.421939    79App   12.870564    80App   13.446281  
     116Ap    13.650552   117Ap    13.768521    81App   14.037680  
     118Ap    14.465709   119Ap    16.730864    82App   16.764425  
     120Ap    32.966916   121Ap    49.155312   122Ap   256.304119  

    Final Occupation by Irrep:
             Ap   App 
    DOCC [     7,    2 ]

  @DF-RHF Final Energy:  -106.04905279885963

   => Energetics <=

    Nuclear Repulsion Energy =             29.2478055206903313
    One-Electron Energy =                -201.5534890528258245
    Two-Electron Energy =                  66.2566307332758697
    Total Energy =                       -106.0490527988596341

Computation Completed


Properties will be evaluated at   0.000000,   0.000000,   0.000000 [a0]

Properties computed using the SCF density matrix

  Nuclear Dipole Moment: [e a0]
     X:     5.7328      Y:    41.3513      Z:     0.0000

  Electronic Dipole Moment: [e a0]
     X:    -5.7075      Y:   -41.2707      Z:     0.0000

  Dipole Moment: [e a0]
     X:     0.0253      Y:     0.0806      Z:     0.0000     Total:     0.0844

  Dipole Moment: [D]
     X:     0.0643      Y:     0.2048      Z:     0.0000     Total:     0.2146


*** tstop() called on node215.bme.utexas.edu at Mon Feb 28 03:16:15 2022
Module time:
	user time   =      10.45 seconds =       0.17 minutes
	system time =       0.09 seconds =       0.00 minutes
	total time  =         11 seconds =       0.18 minutes
Total time:
	user time   =      10.45 seconds =       0.17 minutes
	system time =       0.09 seconds =       0.00 minutes
	total time  =         11 seconds =       0.18 minutes

*** tstart() called on node215.bme.utexas.edu
*** at Mon Feb 28 03:16:15 2022


  //>>>>>>>>>>>>>>>>>>>>>>>>>>>>>>>>>>>//
  //               DFMP2               //
  //<<<<<<<<<<<<<<<<<<<<<<<<<<<<<<<<<<<//

   => Loading Basis Set <=

    Name: (DEF2-QZVPD AUX)
    Role: RIFIT
    Keyword: DF_BASIS_MP2
    atoms 1   entry LA         line  5314 file /home/jtg2769/poltype/miniconda3/envs/p4env/share/psi4/basis/def2-qzvpp-ri.gbs 
    atoms 2   entry O          line   406 file /home/jtg2769/poltype/miniconda3/envs/p4env/share/psi4/basis/def2-qzvpp-ri.gbs 
    atoms 3-4 entry H          line    24 file /home/jtg2769/poltype/miniconda3/envs/p4env/share/psi4/basis/def2-qzvpp-ri.gbs 

	 --------------------------------------------------------
	                          DF-MP2                         
	      2nd-Order Density-Fitted Moller-Plesset Theory     
	              RMP2 Wavefunction,   1 Threads             
	                                                         
	        Rob Parrish, Justin Turney, Andy Simmonett,      
	           Ed Hohenstein, and C. David Sherrill          
	 --------------------------------------------------------

   => Auxiliary Basis Set <=

  Basis Set: (DEF2-QZVPD AUX)
    Blend: DEF2-QZVPP-RI
    Number of shells: 111
    Number of basis function: 505
    Number of Cartesian functions: 724
    Spherical Harmonics?: true
    Max angular momentum: 6

	 --------------------------------------------------------
	                 NBF =   204, NAUX =   505
	 --------------------------------------------------------
	   CLASS    FOCC     OCC    AOCC    AVIR     VIR    FVIR
	   PAIRS       0       9       9     195     195       0
	 --------------------------------------------------------

	-----------------------------------------------------------
	 ==================> DF-MP2 Energies <==================== 
	-----------------------------------------------------------
	 Reference Energy          =    -106.0490527988596341 [Eh]
	 Singles Energy            =      -0.0000000000000000 [Eh]
	 Same-Spin Energy          =      -0.1122252759384411 [Eh]
	 Opposite-Spin Energy      =      -0.3604698858241221 [Eh]
	 Correlation Energy        =      -0.4726951617625632 [Eh]
	 Total Energy              =    -106.5217479606221929 [Eh]
	-----------------------------------------------------------
	 ================> DF-SCS-MP2 Energies <================== 
	-----------------------------------------------------------
	 SCS Same-Spin Scale       =       0.3333333333333333 [-]
	 SCS Opposite-Spin Scale   =       1.2000000000000000 [-]
	 SCS Same-Spin Energy      =      -0.0374084253128137 [Eh]
	 SCS Opposite-Spin Energy  =      -0.4325638629889466 [Eh]
	 SCS Correlation Energy    =      -0.4699722883017602 [Eh]
	 SCS Total Energy          =    -106.5190250871613955 [Eh]
	-----------------------------------------------------------


*** tstop() called on node215.bme.utexas.edu at Mon Feb 28 03:16:16 2022
Module time:
	user time   =       1.09 seconds =       0.02 minutes
	system time =       0.05 seconds =       0.00 minutes
	total time  =          1 seconds =       0.02 minutes
Total time:
	user time   =      11.54 seconds =       0.19 minutes
	system time =       0.14 seconds =       0.00 minutes
	total time  =         12 seconds =       0.20 minutes

  //>>>>>>>>>>>>>>>>>>>>>>>>>>>>>>>>>>>>>>//
  // CBS Computation: CCSD(T) / DEF2-SVPD //
  //<<<<<<<<<<<<<<<<<<<<<<<<<<<<<<<<<<<<<<//


*** tstart() called on node215.bme.utexas.edu
*** at Mon Feb 28 03:16:16 2022

   => Loading Basis Set <=

    Name: DEF2-SVPD
    Role: ORBITAL
    Keyword: BASIS
    atoms 1   entry LA         line  2014 (ECP: line  3140) file /home/jtg2769/poltype/miniconda3/envs/p4env/share/psi4/basis/def2-svpd.gbs 
    atoms 2   entry O          line   149 file /home/jtg2769/poltype/miniconda3/envs/p4env/share/psi4/basis/def2-svpd.gbs 
    atoms 3-4 entry H          line    14 file /home/jtg2769/poltype/miniconda3/envs/p4env/share/psi4/basis/def2-svpd.gbs 

    !!!  WARNING: ECP capability is in beta. Please check occupations closely.  !!!


         ---------------------------------------------------------
                                   SCF
               by Justin Turney, Rob Parrish, Andy Simmonett
                          and Daniel G. A. Smith
                              RHF Reference
                        1 Threads,  47683 MiB Core
         ---------------------------------------------------------

  ==> Geometry <==

    Molecular point group: cs
    Full point group: Cs

    Geometry (in Angstrom), charge = 3, multiplicity = 1:

       Center              X                  Y                   Z               Mass       
    ------------   -----------------  -----------------  -----------------  -----------------
         LA          -0.044661161096    -0.323063315995     0.000000000000   138.906356300000
         O            0.334229838904     2.425604684005     0.000000000000    15.994914619570
         H            0.425540838904     3.015507684005     0.761699000000     1.007825032230
         H            0.425540838904     3.015507684005    -0.761699000000     1.007825032230

  Running in cs symmetry.

  Rotational constants: A =     14.41295  B =      0.13031  C =      0.12915 [cm^-1]
  Rotational constants: A = 432089.23884  B =   3906.69193  C =   3871.69634 [MHz]
  Nuclear repulsion =   29.247805520690331

  Charge       = 3
  Multiplicity = 1
  Electrons    = 18
  Nalpha       = 9
  Nbeta        = 9

  ==> Algorithm <==

  SCF Algorithm Type is PK.
  DIIS enabled.
  MOM disabled.
  Fractional occupation disabled.
  Guess Type is SAD.
  Energy threshold   = 1.00e-08
  Density threshold  = 1.00e-08
  Integral threshold = 0.00e+00

  ==> Primary Basis <==

  Basis Set: DEF2-SVPD
    Blend: DEF2-SVPD
    Number of shells: 30
    Number of basis function: 74
    Number of Cartesian functions: 81
    Spherical Harmonics?: true
    Max angular momentum: 3

  Core potential: DEF2-SVPD
    Number of shells: 4
    Number of ECP primitives: 10
    Number of ECP core electrons: 46
    Max angular momentum: 3

  ==> Pre-Iterations <==

   -------------------------------------------------------
    Irrep   Nso     Nmo     Nalpha   Nbeta   Ndocc  Nsocc
   -------------------------------------------------------
     A'        48      48       0       0       0       0
     A"        26      26       0       0       0       0
   -------------------------------------------------------
    Total      74      74       9       9       9       0
   -------------------------------------------------------

  ==> Integral Setup <==

  Using in-core PK algorithm.
   Calculation information:
      Number of atoms:                   4
      Number of AO shells:              30
      Number of primitives:             47
      Number of atomic orbitals:        81
      Number of basis functions:        74

      Integral cutoff                 1.00e-12
      Number of threads:                 1

  Performing in-core PK
  Using 7703400 doubles for integral storage.
  We computed 106520 shell quartets total.
  Whereas there are 108345 unique shell quartets.

  ==> DiskJK: Disk-Based J/K Matrices <==

    J tasked:                  Yes
    K tasked:                  Yes
    wK tasked:                  No
    Memory [MiB]:            35762
    Schwarz Cutoff:          1E-12

    OpenMP threads:              1

  Minimum eigenvalue in the overlap matrix is 1.2120654698E-03.
  Using Symmetric Orthogonalization.

  SCF Guess: Superposition of Atomic Densities via on-the-fly atomic UHF.

  ==> Iterations <==

                        Total Energy        Delta E     RMS |[F,P]|

   @RHF iter SAD:  -106.55705614203248   -1.06557e+02   0.00000e+00 
   @RHF iter   1:  -105.88734774456609    6.69708e-01   6.92640e-03 DIIS
   @RHF iter   2:  -105.93903499535949   -5.16873e-02   3.94144e-03 DIIS
   @RHF iter   3:  -105.95560606293057   -1.65711e-02   5.58214e-04 SOSCF, nmicro=5
   @RHF iter   4:  -105.95631985033724   -7.13787e-04   6.74241e-06 SOSCF, nmicro=5
   @RHF iter   5:  -105.95632002056448   -1.70227e-07   1.02714e-07 SOSCF, nmicro=5
   @RHF iter   6:  -105.95632002058669   -2.22116e-11   1.18962e-09 SOSCF, nmicro=conv
  Energy and wave function converged.


  ==> Post-Iterations <==

    Orbital Energies [Eh]
    ---------------------

    Doubly Occupied:                                                      

       1Ap   -21.131780     2Ap    -2.602608     3Ap    -1.888127  
       1App   -1.800930     4Ap    -1.800234     5Ap    -1.791440  
       2App   -1.265337     6Ap    -1.175044     7Ap    -1.071304  

    Virtual:                                                              

       8Ap    -0.608203     3App   -0.608139     4App   -0.600810  
       9Ap    -0.596945    10Ap    -0.590944    11Ap    -0.549339  
       5App   -0.446877    12Ap    -0.442743    13Ap    -0.408141  
      14Ap    -0.304490    15Ap    -0.290527     6App   -0.289310  
       7App   -0.288631    16Ap    -0.287443    17Ap    -0.279597  
       8App   -0.256570    18Ap    -0.253501    19Ap    -0.251237  
       9App   -0.226375    20Ap    -0.223382    21Ap    -0.200231  
      10App   -0.164992    22Ap    -0.144996    11App   -0.102637  
      23Ap    -0.097505    24Ap    -0.055554    12App   -0.035496  
      25Ap    -0.034422    26Ap    -0.030456    13App   -0.020883  
      27Ap     0.012117    14App    0.033995    15App    0.050487  
      28Ap     0.053440    29Ap     0.059384    16App    0.104316  
      30Ap     0.137530    17App    0.167728    31Ap     0.178624  
      32Ap     0.180469    33Ap     0.239158    18App    0.252455  
      19App    0.257633    34Ap     0.289584    35Ap     0.314030  
      36Ap     0.509190    37Ap     0.680235    20App    0.831816  
      38Ap     0.961329    39Ap     1.119127    21App    1.320795  
      22App    1.413981    40Ap     1.462082    41Ap     1.612078  
      23App    1.716806    42Ap     1.846953    24App    2.071306  
      43Ap     2.206384    44Ap     2.816565    25App    2.868985  
      45Ap     3.031661    46Ap     3.491577    26App    3.887384  
      47Ap    10.957406    48Ap    32.927503  

    Final Occupation by Irrep:
             Ap   App 
    DOCC [     7,    2 ]

  @RHF Final Energy:  -105.95632002058669

   => Energetics <=

    Nuclear Repulsion Energy =             29.2478055206903313
    One-Electron Energy =                -201.3546433469562658
    Two-Electron Energy =                  66.1505178056792573
    Total Energy =                       -105.9563200205866877

Computation Completed


Properties will be evaluated at   0.000000,   0.000000,   0.000000 [a0]

Properties computed using the SCF density matrix

  Nuclear Dipole Moment: [e a0]
     X:     5.7328      Y:    41.3513      Z:     0.0000

  Electronic Dipole Moment: [e a0]
     X:    -5.7077      Y:   -41.2743      Z:     0.0000

  Dipole Moment: [e a0]
     X:     0.0251      Y:     0.0770      Z:     0.0000     Total:     0.0810

  Dipole Moment: [D]
     X:     0.0637      Y:     0.1957      Z:     0.0000     Total:     0.2058


*** tstop() called on node215.bme.utexas.edu at Mon Feb 28 03:16:19 2022
Module time:
	user time   =       2.52 seconds =       0.04 minutes
	system time =       0.02 seconds =       0.00 minutes
	total time  =          3 seconds =       0.05 minutes
Total time:
	user time   =      14.07 seconds =       0.23 minutes
	system time =       0.16 seconds =       0.00 minutes
	total time  =         15 seconds =       0.25 minutes
 MINTS: Wrapper to libmints.
   by Justin Turney

   Calculation information:
      Number of threads:                 1
      Number of atoms:                   4
      Number of AO shells:              30
      Number of SO shells:              26
      Number of primitives:             47
      Number of atomic orbitals:        81
      Number of basis functions:        74

      Number of irreps:                  2
      Integral cutoff                 0.00e+00
      Number of functions per irrep: [  48   26 ]

 OEINTS: Overlap, kinetic, potential, dipole, and quadrupole integrals
         stored in file 35.

      Computing two-electron integrals...done
      Computed 1873384 non-zero two-electron integrals.
        Stored in file 33.


*** tstart() called on node215.bme.utexas.edu
*** at Mon Feb 28 03:16:20 2022


	Wfn Parameters:
	--------------------
	Wavefunction         = CCSD_T
	Number of irreps     = 2
	Number of MOs        = 74
	Number of active MOs = 74
	AO-Basis             = NONE
	Semicanonical        = false
	Reference            = RHF
	Print Level          = 1

	IRREP	# MOs	# FZDC	# DOCC	# SOCC	# VIRT	# FZVR
	-----	-----	------	------	------	------	------
	 Ap	   48	    0	    7	    0	    41	    0
	 App	   26	    0	    2	    0	    24	    0
	Transforming integrals...
	IWL integrals will be deleted.
	(OO|OO)...
	Presorting SO-basis two-electron integrals.
	Sorting File: SO Ints (nn|nn) nbuckets = 1
	Transforming the one-electron integrals and constructing Fock matrices
	Starting first half-transformation.
	Sorting half-transformed integrals.
	First half integral transformation complete.
	Starting second half-transformation.
	Two-electron integral transformation complete.
	(OO|OV)...
	Starting second half-transformation.
	Two-electron integral transformation complete.
	(OO|VV)...
	Starting second half-transformation.
	Two-electron integral transformation complete.
	(OV|OO)...
	Starting first half-transformation.
	Sorting half-transformed integrals.
	First half integral transformation complete.
	Starting second half-transformation.
	Two-electron integral transformation complete.
	(OV|OV)...
	Starting second half-transformation.
	Two-electron integral transformation complete.
	(OV|VV)...
	Starting second half-transformation.
	Two-electron integral transformation complete.
	(VV|OO)...
	Starting first half-transformation.
	Sorting half-transformed integrals.
	First half integral transformation complete.
	Starting second half-transformation.
	Two-electron integral transformation complete.
	(VV|OV)...
	Starting second half-transformation.
	Two-electron integral transformation complete.
	(VV|VV)...
	Starting second half-transformation.
	Two-electron integral transformation complete.
	Frozen core energy     =      0.00000000000000

	Size of irrep 0 of <ab|cd> integrals:      5.094 (MW) /     40.752 (MB)
	Size of irrep 1 of <ab|cd> integrals:      3.873 (MW) /     30.984 (MB)
	Total:                                     8.967 (MW) /     71.737 (MB)

	Size of irrep 0 of <ia|bc> integrals:      0.756 (MW) /      6.049 (MB)
	Size of irrep 1 of <ia|bc> integrals:      0.492 (MW) /      3.936 (MB)
	Total:                                     1.248 (MW) /      9.985 (MB)

	Size of irrep 0 of tijab amplitudes:       0.120 (MW) /      0.957 (MB)
	Size of irrep 1 of tijab amplitudes:       0.055 (MW) /      0.441 (MB)
	Total:                                     0.175 (MW) /      1.398 (MB)

	Nuclear Rep. energy          =     29.24780552069033
	SCF energy                   =   -105.95632002058669
	One-electron energy          =   -201.35464341024144
	Two-electron energy          =     66.15051786896322
	Reference energy             =   -105.95632002058788

*** tstop() called on node215.bme.utexas.edu at Mon Feb 28 03:16:21 2022
Module time:
	user time   =       0.78 seconds =       0.01 minutes
	system time =       0.34 seconds =       0.01 minutes
	total time  =          1 seconds =       0.02 minutes
Total time:
	user time   =      15.68 seconds =       0.26 minutes
	system time =       0.53 seconds =       0.01 minutes
	total time  =         17 seconds =       0.28 minutes
            **************************
            *                        *
            *        CCENERGY        *
            *                        *
            **************************

    Nuclear Rep. energy (wfn)     =   29.247805520690331
    SCF energy          (wfn)     = -105.956320020586688
    Reference energy    (file100) = -105.956320020587881

    Input parameters:
    -----------------
    Wave function   =     CCSD_T
    Reference wfn   =     RHF
    Brueckner       =     No
    Memory (Mbytes) =     50000.0
    Maxiter         =     50
    R_Convergence   =     1.0e-07
    E_Convergence   =     1.0e-06
    Restart         =     Yes
    DIIS            =     Yes
    AO Basis        =     NONE
    ABCD            =     NEW
    Cache Level     =     2
    Cache Type      =     LOW
    Print Level     =     1
    Num. of threads =     1
    # Amps to Print =     10
    Print MP2 Amps? =     No
    Analyze T2 Amps =     No
    Print Pair Ener =     No
    Local CC        =     No
    SCS-MP2         =     False
    SCSN-MP2        =     False
    SCS-CCSD        =     False

MP2 correlation energy -0.3005228203424303
                Solving CC Amplitude Equations
                ------------------------------
  Iter             Energy              RMS        T1Diag      D1Diag    New D1Diag    D2Diag
  ----     ---------------------    ---------   ----------  ----------  ----------   --------
     0        -0.300522820342430    0.000e+00    0.000000    0.000000    0.000000    0.114305
     1        -0.306640888860918    4.824e-02    0.008797    0.026598    0.026598    0.116139
     2        -0.312069440921103    1.748e-02    0.008694    0.025868    0.025868    0.121257
     3        -0.314003440681223    9.928e-03    0.010514    0.032734    0.032734    0.123320
     4        -0.314117297293496    3.504e-03    0.011279    0.035826    0.035826    0.123885
     5        -0.314055744396557    1.994e-03    0.011698    0.037906    0.037906    0.124049
     6        -0.314069668555041    9.011e-04    0.011931    0.039106    0.039106    0.124057
     7        -0.314071894392408    3.415e-04    0.012008    0.039573    0.039573    0.124015
     8        -0.314064977704386    1.257e-04    0.012018    0.039677    0.039677    0.123991
     9        -0.314065597792282    4.495e-05    0.012021    0.039714    0.039714    0.123987
    10        -0.314065777611959    1.895e-05    0.012021    0.039725    0.039725    0.123988
    11        -0.314065481886786    6.569e-06    0.012021    0.039724    0.039724    0.123987
    12        -0.314065397514498    2.213e-06    0.012021    0.039726    0.039726    0.123987
    13        -0.314065351742705    9.527e-07    0.012021    0.039725    0.039725    0.123987
    14        -0.314065331705750    2.965e-07    0.012021    0.039725    0.039725    0.123987
    15        -0.314065325076615    1.369e-07    0.012021    0.039725    0.039725    0.123987
    16        -0.314065325329071    6.081e-08    0.012021    0.039725    0.039725    0.123987

    Iterations converged.


    Largest TIA Amplitudes:
              6   1         0.0340745155
              5   3         0.0183124197
              6  13         0.0140886772
              6   4        -0.0107736507
              5   2        -0.0105016126
              5   5         0.0083316034
              6  21        -0.0071067854
              8  62        -0.0063618484
              6   9        -0.0060053448
              2   5         0.0059344529

    Largest TIjAb Amplitudes:
      6   6  30  30        -0.0330159726
      7   7   0   0        -0.0279158276
      3   3  41  41        -0.0270166396
      7   7  41  41        -0.0269645717
      7   7  42  42        -0.0267061319
      3   3   1   1        -0.0263629671
      4   4  42  42        -0.0263220206
      4   4   1   1        -0.0259980568
      3   3   0   0        -0.0259662097
      4   4   2   2        -0.0235781746

    SCF energy       (wfn)                    = -105.956320020586688
    Reference energy (file100)                = -105.956320020587881

    Opposite-spin MP2 correlation energy      =   -0.221260534350863
    Same-spin MP2 correlation energy          =   -0.079262285991568
    MP2 correlation energy                    =   -0.300522820342430
      * MP2 total energy                      = -106.256842840930318

    Opposite-spin CCSD correlation energy     =   -0.241095130882791
    Same-spin CCSD correlation energy         =   -0.072970194446280
    CCSD correlation energy                   =   -0.314065325329071
      * CCSD total energy                     = -106.270385345916949

            **************************
            *                        *
            *        CCTRIPLES       *
            *                        *
            **************************


    Wave function   =    CCSD_T
    Reference wfn   =      RHF

    Nuclear Rep. energy (wfn)                =   29.247805520690331
    SCF energy          (wfn)                = -105.956320020586688
    Reference energy    (file100)            = -105.956320020587881
    CCSD energy         (file100)            =   -0.314065325329071
    Total CCSD energy   (file100)            = -106.270385345916949

    Number of ijk index combinations:              165
    Memory available in words        :      6250000000
    ~Words needed per explicit thread:          275684
    Number of threads for explicit ijk threading:    1

    MKL num_threads set to 1 for explicit threading.

    (T) energy                                =   -0.006975774510285
      * CCSD(T) total energy                  = -106.277361120427244


  //>>>>>>>>>>>>>>>>>>>>>>>>>>>>>>>>>>>>>>>//
  // CBS Computation: CCSD(T) / DEF2-TZVPD //
  //<<<<<<<<<<<<<<<<<<<<<<<<<<<<<<<<<<<<<<<//


*** tstart() called on node215.bme.utexas.edu
*** at Mon Feb 28 03:16:39 2022

   => Loading Basis Set <=

    Name: DEF2-TZVPD
    Role: ORBITAL
    Keyword: BASIS
    atoms 1   entry LA         line  2525 (ECP: line  3764) file /home/jtg2769/poltype/miniconda3/envs/p4env/share/psi4/basis/def2-tzvpd.gbs 
    atoms 2   entry O          line   208 file /home/jtg2769/poltype/miniconda3/envs/p4env/share/psi4/basis/def2-tzvpd.gbs 
    atoms 3-4 entry H          line    14 file /home/jtg2769/poltype/miniconda3/envs/p4env/share/psi4/basis/def2-tzvpd.gbs 

    !!!  WARNING: ECP capability is in beta. Please check occupations closely.  !!!


         ---------------------------------------------------------
                                   SCF
               by Justin Turney, Rob Parrish, Andy Simmonett
                          and Daniel G. A. Smith
                              RHF Reference
                        1 Threads,  47683 MiB Core
         ---------------------------------------------------------

  ==> Geometry <==

    Molecular point group: cs
    Full point group: Cs

    Geometry (in Angstrom), charge = 3, multiplicity = 1:

       Center              X                  Y                   Z               Mass       
    ------------   -----------------  -----------------  -----------------  -----------------
         LA          -0.044661161096    -0.323063315995     0.000000000000   138.906356300000
         O            0.334229838904     2.425604684005     0.000000000000    15.994914619570
         H            0.425540838904     3.015507684005     0.761699000000     1.007825032230
         H            0.425540838904     3.015507684005    -0.761699000000     1.007825032230

  Running in cs symmetry.

  Rotational constants: A =     14.41295  B =      0.13031  C =      0.12915 [cm^-1]
  Rotational constants: A = 432089.23884  B =   3906.69193  C =   3871.69634 [MHz]
  Nuclear repulsion =   29.247805520690331

  Charge       = 3
  Multiplicity = 1
  Electrons    = 18
  Nalpha       = 9
  Nbeta        = 9

  ==> Algorithm <==

  SCF Algorithm Type is PK.
  DIIS enabled.
  MOM disabled.
  Fractional occupation disabled.
  Guess Type is SAD.
  Energy threshold   = 1.00e-08
  Density threshold  = 1.00e-08
  Integral threshold = 0.00e+00

  ==> Primary Basis <==

  Basis Set: DEF2-TZVPD
    Blend: DEF2-TZVPD
    Number of shells: 39
    Number of basis function: 101
    Number of Cartesian functions: 113
    Spherical Harmonics?: true
    Max angular momentum: 3

  Core potential: DEF2-TZVPD
    Number of shells: 4
    Number of ECP primitives: 10
    Number of ECP core electrons: 46
    Max angular momentum: 3

  ==> Pre-Iterations <==

   -------------------------------------------------------
    Irrep   Nso     Nmo     Nalpha   Nbeta   Ndocc  Nsocc
   -------------------------------------------------------
     A'        65      65       0       0       0       0
     A"        36      36       0       0       0       0
   -------------------------------------------------------
    Total     101     101       9       9       9       0
   -------------------------------------------------------

  ==> Integral Setup <==

  Using in-core PK algorithm.
   Calculation information:
      Number of atoms:                   4
      Number of AO shells:              39
      Number of primitives:             58
      Number of atomic orbitals:       113
      Number of basis functions:       101

      Integral cutoff                 1.00e-12
      Number of threads:                 1

  Performing in-core PK
  Using 26537952 doubles for integral storage.
  We computed 294088 shell quartets total.
  Whereas there are 304590 unique shell quartets.

  ==> DiskJK: Disk-Based J/K Matrices <==

    J tasked:                  Yes
    K tasked:                  Yes
    wK tasked:                  No
    Memory [MiB]:            35762
    Schwarz Cutoff:          1E-12

    OpenMP threads:              1

  Minimum eigenvalue in the overlap matrix is 5.3413860499E-04.
  Using Symmetric Orthogonalization.

  SCF Guess: Superposition of Atomic Densities via on-the-fly atomic UHF.

  ==> Iterations <==

                        Total Energy        Delta E     RMS |[F,P]|

   @RHF iter SAD:  -106.59697759158479   -1.06597e+02   0.00000e+00 
   @RHF iter   1:  -105.96727067317262    6.29707e-01   5.51789e-03 DIIS
   @RHF iter   2:  -106.02191508165318   -5.46444e-02   3.35064e-03 DIIS
   @RHF iter   3:  -106.04145740798887   -1.95423e-02   3.98718e-04 SOSCF, nmicro=5
   @RHF iter   4:  -106.04219525863931   -7.37851e-04   5.46508e-06 SOSCF, nmicro=5
   @RHF iter   5:  -106.04219543889442   -1.80255e-07   1.05193e-07 SOSCF, nmicro=5
   @RHF iter   6:  -106.04219543893058   -3.61524e-11   1.41649e-09 SOSCF, nmicro=conv
  Energy and wave function converged.


  ==> Post-Iterations <==

    Orbital Energies [Eh]
    ---------------------

    Doubly Occupied:                                                      

       1Ap   -21.126794     2Ap    -2.601146     3Ap    -1.904203  
       1App   -1.799859     4Ap    -1.799124     5Ap    -1.791042  
       2App   -1.261536     6Ap    -1.171923     7Ap    -1.068793  

    Virtual:                                                              

       8Ap    -0.607566     3App   -0.607495     4App   -0.600363  
       9Ap    -0.596445    10Ap    -0.590647    11Ap    -0.550090  
       5App   -0.445446    12Ap    -0.441182    13Ap    -0.408835  
      14Ap    -0.305125     6App   -0.292612    15Ap    -0.291538  
       7App   -0.288944    16Ap    -0.287893    17Ap    -0.282267  
      18Ap    -0.258219     8App   -0.257089    19Ap    -0.251734  
       9App   -0.233134    20Ap    -0.229805    21Ap    -0.217505  
      10App   -0.177555    22Ap    -0.169779    23Ap    -0.142718  
      11App   -0.137512    24Ap    -0.080635    25Ap    -0.068820  
      12App   -0.062409    26Ap    -0.053779    27Ap    -0.038261  
      13App   -0.036370    14App   -0.031725    15App   -0.030783  
      28Ap    -0.025125    29Ap    -0.017519    30Ap    -0.016761  
      31Ap     0.012815    16App    0.022028    17App    0.034843  
      32Ap     0.076265    18App    0.132154    19App    0.140470  
      33Ap     0.141409    34Ap     0.154947    35Ap     0.183600  
      20App    0.201725    36Ap     0.254637    37Ap     0.282136  
      21App    0.283018    38Ap     0.298775    39Ap     0.358515  
      40Ap     0.399896    41Ap     0.425031    22App    0.508432  
      23App    0.600089    42Ap     0.672432    43Ap     0.773859  
      24App    1.239362    44Ap     1.346262    45Ap     1.380919  
      25App    1.488409    46Ap     1.541648    26App    1.598459  
      47Ap     1.840603    27App    1.891625    48Ap     2.101178  
      49Ap     2.261350    28App    2.406390    29App    2.615143  
      50Ap     2.672879    51Ap     2.689924    52Ap     2.956946  
      53Ap     3.655965    30App    3.837349    54Ap     4.976423  
      55Ap     5.136234    56Ap     5.293448    31App    5.344228  
      32App    5.358141    33App    5.996112    57Ap     6.235736  
      58Ap     6.413938    34App    6.462247    59Ap     6.522171  
      60Ap     6.861821    35App    7.006421    61Ap    11.021138  
      62Ap    11.124806    36App   11.188124    63Ap    11.816136  
      64Ap    32.949814    65Ap    44.697367  

    Final Occupation by Irrep:
             Ap   App 
    DOCC [     7,    2 ]

  @RHF Final Energy:  -106.04219543893058

   => Energetics <=

    Nuclear Repulsion Energy =             29.2478055206903313
    One-Electron Energy =                -201.5311618627513610
    Two-Electron Energy =                  66.2411609031304636
    Total Energy =                       -106.0421954389305768

Computation Completed


Properties will be evaluated at   0.000000,   0.000000,   0.000000 [a0]

Properties computed using the SCF density matrix

  Nuclear Dipole Moment: [e a0]
     X:     5.7328      Y:    41.3513      Z:     0.0000

  Electronic Dipole Moment: [e a0]
     X:    -5.7085      Y:   -41.2777      Z:     0.0000

  Dipole Moment: [e a0]
     X:     0.0242      Y:     0.0736      Z:     0.0000     Total:     0.0775

  Dipole Moment: [D]
     X:     0.0616      Y:     0.1871      Z:     0.0000     Total:     0.1970


*** tstop() called on node215.bme.utexas.edu at Mon Feb 28 03:16:44 2022
Module time:
	user time   =       5.45 seconds =       0.09 minutes
	system time =       0.05 seconds =       0.00 minutes
	total time  =          5 seconds =       0.08 minutes
Total time:
	user time   =      24.73 seconds =       0.41 minutes
	system time =       1.85 seconds =       0.03 minutes
	total time  =         40 seconds =       0.67 minutes
 MINTS: Wrapper to libmints.
   by Justin Turney

   Calculation information:
      Number of threads:                 1
      Number of atoms:                   4
      Number of AO shells:              39
      Number of SO shells:              34
      Number of primitives:             58
      Number of atomic orbitals:       113
      Number of basis functions:       101

      Number of irreps:                  2
      Integral cutoff                 0.00e+00
      Number of functions per irrep: [  65   36 ]

 OEINTS: Overlap, kinetic, potential, dipole, and quadrupole integrals
         stored in file 35.

      Computing two-electron integrals...done
      Computed 6447759 non-zero two-electron integrals.
        Stored in file 33.


*** tstart() called on node215.bme.utexas.edu
*** at Mon Feb 28 03:16:46 2022


	Wfn Parameters:
	--------------------
	Wavefunction         = CCSD_T
	Number of irreps     = 2
	Number of MOs        = 101
	Number of active MOs = 101
	AO-Basis             = NONE
	Semicanonical        = false
	Reference            = RHF
	Print Level          = 1

	IRREP	# MOs	# FZDC	# DOCC	# SOCC	# VIRT	# FZVR
	-----	-----	------	------	------	------	------
	 Ap	   65	    0	    7	    0	    58	    0
	 App	   36	    0	    2	    0	    34	    0
	Transforming integrals...
	IWL integrals will be deleted.
	(OO|OO)...
	Presorting SO-basis two-electron integrals.
	Sorting File: SO Ints (nn|nn) nbuckets = 1
	Transforming the one-electron integrals and constructing Fock matrices
	Starting first half-transformation.
	Sorting half-transformed integrals.
	First half integral transformation complete.
	Starting second half-transformation.
	Two-electron integral transformation complete.
	(OO|OV)...
	Starting second half-transformation.
	Two-electron integral transformation complete.
	(OO|VV)...
	Starting second half-transformation.
	Two-electron integral transformation complete.
	(OV|OO)...
	Starting first half-transformation.
	Sorting half-transformed integrals.
	First half integral transformation complete.
	Starting second half-transformation.
	Two-electron integral transformation complete.
	(OV|OV)...
	Starting second half-transformation.
	Two-electron integral transformation complete.
	(OV|VV)...
	Starting second half-transformation.
	Two-electron integral transformation complete.
	(VV|OO)...
	Starting first half-transformation.
	Sorting half-transformed integrals.
	First half integral transformation complete.
	Starting second half-transformation.
	Two-electron integral transformation complete.
	(VV|OV)...
	Starting second half-transformation.
	Two-electron integral transformation complete.
	(VV|VV)...
	Starting second half-transformation.
	Two-electron integral transformation complete.
	Frozen core energy     =      0.00000000000000

	Size of irrep 0 of <ab|cd> integrals:     20.430 (MW) /    163.443 (MB)
	Size of irrep 1 of <ab|cd> integrals:     15.555 (MW) /    124.441 (MB)
	Total:                                    35.986 (MW) /    287.884 (MB)

	Size of irrep 0 of <ia|bc> integrals:      2.142 (MW) /     17.140 (MB)
	Size of irrep 1 of <ia|bc> integrals:      1.396 (MW) /     11.169 (MB)
	Total:                                     3.539 (MW) /     28.309 (MB)

	Size of irrep 0 of tijab amplitudes:       0.240 (MW) /      1.916 (MB)
	Size of irrep 1 of tijab amplitudes:       0.110 (MW) /      0.883 (MB)
	Total:                                     0.350 (MW) /      2.800 (MB)

	Nuclear Rep. energy          =     29.24780552069033
	SCF energy                   =   -106.04219543893058
	One-electron energy          =   -201.53116206639092
	Two-electron energy          =     66.24116110676955
	Reference energy             =   -106.04219543893102

*** tstop() called on node215.bme.utexas.edu at Mon Feb 28 03:16:51 2022
Module time:
	user time   =       2.58 seconds =       0.04 minutes
	system time =       1.38 seconds =       0.02 minutes
	total time  =          5 seconds =       0.08 minutes
Total time:
	user time   =      29.00 seconds =       0.48 minutes
	system time =       3.29 seconds =       0.05 minutes
	total time  =         47 seconds =       0.78 minutes
            **************************
            *                        *
            *        CCENERGY        *
            *                        *
            **************************

    Nuclear Rep. energy (wfn)     =   29.247805520690331
    SCF energy          (wfn)     = -106.042195438930577
    Reference energy    (file100) = -106.042195438931017

    Input parameters:
    -----------------
    Wave function   =     CCSD_T
    Reference wfn   =     RHF
    Brueckner       =     No
    Memory (Mbytes) =     50000.0
    Maxiter         =     50
    R_Convergence   =     1.0e-07
    E_Convergence   =     1.0e-06
    Restart         =     Yes
    DIIS            =     Yes
    AO Basis        =     NONE
    ABCD            =     NEW
    Cache Level     =     2
    Cache Type      =     LOW
    Print Level     =     1
    Num. of threads =     1
    # Amps to Print =     10
    Print MP2 Amps? =     No
    Analyze T2 Amps =     No
    Print Pair Ener =     No
    Local CC        =     No
    SCS-MP2         =     False
    SCSN-MP2        =     False
    SCS-CCSD        =     False

MP2 correlation energy -0.3974303299604327
                Solving CC Amplitude Equations
                ------------------------------
  Iter             Energy              RMS        T1Diag      D1Diag    New D1Diag    D2Diag
  ----     ---------------------    ---------   ----------  ----------  ----------   --------
     0        -0.397430329960433    0.000e+00    0.000000    0.000000    0.000000    0.118846
     1        -0.402683846119440    4.565e-02    0.007560    0.023193    0.023193    0.119144
     2        -0.408719128208478    1.709e-02    0.007213    0.021798    0.021798    0.124028
     3        -0.410716049552216    9.094e-03    0.008721    0.027639    0.027639    0.125839
     4        -0.410726996769977    3.132e-03    0.009378    0.030234    0.030234    0.126321
     5        -0.410661443159364    1.825e-03    0.009754    0.032028    0.032028    0.126482
     6        -0.410688714135575    8.915e-04    0.010006    0.033259    0.033259    0.126518
     7        -0.410690273179584    3.106e-04    0.010078    0.033676    0.033676    0.126478
     8        -0.410681750843107    1.261e-04    0.010088    0.033777    0.033777    0.126454
     9        -0.410682132234801    4.242e-05    0.010092    0.033817    0.033817    0.126451
    10        -0.410682645642029    1.719e-05    0.010092    0.033826    0.033826    0.126451
    11        -0.410682036354349    6.994e-06    0.010091    0.033826    0.033826    0.126450
    12        -0.410682013879990    2.206e-06    0.010091    0.033828    0.033828    0.126450
    13        -0.410681977948853    9.021e-07    0.010091    0.033827    0.033827    0.126450
    14        -0.410681953135094    2.660e-07    0.010091    0.033827    0.033827    0.126450
    15        -0.410681947878328    1.207e-07    0.010091    0.033827    0.033827    0.126450
    16        -0.410681948200207    5.692e-08    0.010091    0.033827    0.033827    0.126450

    Iterations converged.


    Largest TIA Amplitudes:
              6   1         0.0294821487
              5   3         0.0153087165
              6   4        -0.0092773422
              6  13        -0.0083685435
              5   2        -0.0082084157
              5   5         0.0073075683
              8  84         0.0061783593
              6  43         0.0057094518
              6  21        -0.0055752621
              6   9         0.0051354825

    Largest TIjAb Amplitudes:
      7   7   0   0        -0.0278261506
      3   3  58  58        -0.0268938505
      7   7  58  58        -0.0268359038
      7   7  59  59        -0.0265421506
      3   3   1   1        -0.0264018636
      4   4  59  59        -0.0263322832
      4   4   1   1        -0.0261378849
      3   3   0   0        -0.0257931782
      4   4   2   2        -0.0235311845
      6   6  32  32        -0.0232353938

    SCF energy       (wfn)                    = -106.042195438930577
    Reference energy (file100)                = -106.042195438931017

    Opposite-spin MP2 correlation energy      =   -0.297802785481108
    Same-spin MP2 correlation energy          =   -0.099627544479325
    MP2 correlation energy                    =   -0.397430329960433
      * MP2 total energy                      = -106.439625768891446

    Opposite-spin CCSD correlation energy     =   -0.319418798192911
    Same-spin CCSD correlation energy         =   -0.091263150007296
    CCSD correlation energy                   =   -0.410681948200207
      * CCSD total energy                     = -106.452877387131224

            **************************
            *                        *
            *        CCTRIPLES       *
            *                        *
            **************************


    Wave function   =    CCSD_T
    Reference wfn   =      RHF

    Nuclear Rep. energy (wfn)                =   29.247805520690331
    SCF energy          (wfn)                = -106.042195438930577
    Reference energy    (file100)            = -106.042195438931017
    CCSD energy         (file100)            =   -0.410681948200207
    Total CCSD energy   (file100)            = -106.452877387131224

    Number of ijk index combinations:              165
    Memory available in words        :      6250000000
    ~Words needed per explicit thread:          780448
    Number of threads for explicit ijk threading:    1

    MKL num_threads set to 1 for explicit threading.

    (T) energy                                =   -0.010600001358374
      * CCSD(T) total energy                  = -106.463477388489594


  //>>>>>>>>>>>>>>>>>>>>>>>>>>>>>>>>>>>//
  //    CBS Results: custom function   //
  //<<<<<<<<<<<<<<<<<<<<<<<<<<<<<<<<<<<//


   ==> HF <==

   HI-zeta (4) Energy:               -106.049052798860


   ==> Helgaker 2-point correlated extrapolation for method: MP2 <==

   LO-zeta (3) Energy:               -106.439625768891
   HI-zeta (4) Energy:               -106.521747960622
   Alpha (exponent) Value:             3.000000000000
   Extrapolated Energy:              -106.581674965399

   @Extrapolated MP2/(T,Q):          -106.581674965399



   ==> Helgaker 2-point correlated extrapolation for method: HF <==

   LO-zeta (3) Energy:               -106.042195438931
   HI-zeta (4) Energy:               -106.049052798860
   Alpha (exponent) Value:             3.000000000000
   Extrapolated Energy:              -106.054056818267

   @Extrapolated HF/(T,Q):           -106.054056818267



   ==> Helgaker 2-point correlated extrapolation for method: CCSD(T) <==

   LO-zeta (2) Energy:               -106.277361120427
   HI-zeta (3) Energy:               -106.463477388490
   Alpha (exponent) Value:             3.000000000000
   Extrapolated Energy:              -106.541842132937

   @Extrapolated CCSD(T)/(D,T):      -106.541842132937



   ==> Helgaker 2-point correlated extrapolation for method: MP2 <==

   LO-zeta (2) Energy:               -106.256842840930
   HI-zeta (3) Energy:               -106.439625768891
   Alpha (exponent) Value:             3.000000000000
   Extrapolated Energy:              -106.516587001717

   @Extrapolated MP2/(D,T):          -106.516587001717


   ==> Components <==

  ---------------------------------------------------------------------------------------------------------
                          Method / Basis                      Rqd      Energy [Eh]   Variable
  ---------------------------------------------------------------------------------------------------------
                              hf / def2-qzvpd                   *    -106.04905280   HF TOTAL ENERGY
                             mp2 / def2-qzvpd                   *    -106.52174796   MP2 TOTAL ENERGY
                              hf / def2-svpd                         -105.95632002   HF TOTAL ENERGY
                             mp2 / def2-svpd                    *    -106.25684284   MP2 TOTAL ENERGY
                            ccsd / def2-svpd                         -106.27038535   CCSD TOTAL ENERGY
                         ccsd(t) / def2-svpd                    *    -106.27736112   CCSD(T) TOTAL ENERGY
                              hf / def2-tzvpd                   *    -106.04219544   HF TOTAL ENERGY
                             mp2 / def2-tzvpd                   *    -106.43962577   MP2 TOTAL ENERGY
                            ccsd / def2-tzvpd                        -106.45287739   CCSD TOTAL ENERGY
                         ccsd(t) / def2-tzvpd                   *    -106.46347739   CCSD(T) TOTAL ENERGY
  ---------------------------------------------------------------------------------------------------------

   ==> Stages <==

  ---------------------------------------------------------------------------------------------------------
      Stage               Method / Basis                       Wt      Energy [Eh]   Scheme
  ---------------------------------------------------------------------------------------------------------
        scf                   hf / def2-qzvpd                   1    -106.04905280   xtpl_highest_1
       corl                  mp2 / def2-[tq]zvpd                1    -106.58167497   corl_xtpl_helgaker_2
       corl                   hf / def2-[tq]zvpd               -1    -106.05405682   corl_xtpl_helgaker_2
     delta1              ccsd(t) / def2-[st]zvpd                1    -106.54184213   corl_xtpl_helgaker_2
     delta1                  mp2 / def2-[st]zvpd               -1    -106.51658700   corl_xtpl_helgaker_2
  ---------------------------------------------------------------------------------------------------------

   ==> CBS <==

  ---------------------------------------------------------------------------------------------------------
      Stage               Method / Basis                               Energy [Eh]   Scheme
  ---------------------------------------------------------------------------------------------------------
        scf                   hf / def2-qzvpd                        -106.04905280   xtpl_highest_1
       corl                  mp2 / def2-[tq]zvpd                       -0.52761815   corl_xtpl_helgaker_2
     delta1        ccsd(t) - mp2 / def2-[st]zvpd                       -0.02525513   corl_xtpl_helgaker_2
      total                  CBS                                     -106.60192608   
  ---------------------------------------------------------------------------------------------------------
   => Loading Basis Set <=

    Name: DEF2-SVP
    Role: ORBITAL
    Keyword: BASIS
    atoms 1   entry LA         line  1831 (ECP: line  2906) file /home/jtg2769/poltype/miniconda3/envs/p4env/share/psi4/basis/def2-svp.gbs 
    atoms 2   entry O          line   130 file /home/jtg2769/poltype/miniconda3/envs/p4env/share/psi4/basis/def2-svp.gbs 
    atoms 3-4 entry H          line    15 file /home/jtg2769/poltype/miniconda3/envs/p4env/share/psi4/basis/def2-svp.gbs 

    !!!  WARNING: ECP capability is in beta. Please check occupations closely.  !!!


    Psi4 stopped on: Monday, 28 February 2022 03:17AM
    Psi4 wall time for execution: 0:01:10.84

*** Psi4 exiting successfully. Buy a developer a beer!
