
    -----------------------------------------------------------------------
          Psi4: An Open-Source Ab Initio Electronic Structure Package
                               Psi4 1.4a2.dev78 

                         Git: Rev {master} e512d40 


    R. M. Parrish, L. A. Burns, D. G. A. Smith, A. C. Simmonett,
    A. E. DePrince III, E. G. Hohenstein, U. Bozkaya, A. Yu. Sokolov,
    R. Di Remigio, R. M. Richard, J. F. Gonthier, A. M. James,
    H. R. McAlexander, A. Kumar, M. Saitow, X. Wang, B. P. Pritchard,
    P. Verma, H. F. Schaefer III, K. Patkowski, R. A. King, E. F. Valeev,
    F. A. Evangelista, J. M. Turney, T. D. Crawford, and C. D. Sherrill,
    J. Chem. Theory Comput. 13(7) pp 3185--3197 (2017).
    (doi: 10.1021/acs.jctc.7b00174)


                         Additional Contributions by
    P. Kraus, H. Kruse, M. H. Lechner, M. C. Schieber, R. A. Shaw,
    A. Alenaizan, R. Galvelis, Z. L. Glick, S. Lehtola, and J. P. Misiewicz

    -----------------------------------------------------------------------


    Psi4 started on: Monday, 28 February 2022 03:23AM

    Process ID: 3462103
    Host:       node75.bme.utexas.edu
    PSIDATADIR: /home/jtg2769/poltype/miniconda3/envs/p4env/share/psi4
    Memory:     500.0 MiB
    Threads:    1
    
  ==> Input File <==

--------------------------------------------------------------------------
memory 50 GB
set basis def2-QZVPD
set soscf true
set fail_on_maxiter false
molecule{
	3 1
	La -0.038392 -0.277582 0.000000
	--
	0 1
	O 0.558985 4.056099 0.000000
	H 0.650296 4.646001 0.761699
	H 0.650296 4.646001 -0.761699
}

energy(cbs, corl_wfn='mp2',corl_basis='def2-[TQ]ZVPD', delta_wfn='ccsd(t)', delta_basis='def2-[DT]ZVPD')
--------------------------------------------------------------------------

  Memory set to  46.566 GiB by Python driver.

  //>>>>>>>>>>>>>>>>>>>>>>>>>>>>>>>>>>>//
  //     CBS Setup: custom function    //
  //<<<<<<<<<<<<<<<<<<<<<<<<<<<<<<<<<<<//

    Naive listing of computations required.
             hf / def2-qzvpd               for  HF TOTAL ENERGY
            mp2 / def2-tzvpd               for  MP2 TOTAL ENERGY
            mp2 / def2-qzvpd               for  MP2 TOTAL ENERGY
             hf / def2-tzvpd               for  HF TOTAL ENERGY
             hf / def2-qzvpd               for  HF TOTAL ENERGY
        ccsd(t) / def2-svpd                for  CCSD(T) TOTAL ENERGY
        ccsd(t) / def2-tzvpd               for  CCSD(T) TOTAL ENERGY
            mp2 / def2-svpd                for  MP2 TOTAL ENERGY
            mp2 / def2-tzvpd               for  MP2 TOTAL ENERGY

    Enlightened listing of computations required.
            mp2 / def2-qzvpd               for  MP2 TOTAL ENERGY
        ccsd(t) / def2-svpd                for  CCSD(T) TOTAL ENERGY
        ccsd(t) / def2-tzvpd               for  CCSD(T) TOTAL ENERGY

    Full listing of computations to be obtained (required and bonus).
             hf / def2-qzvpd               for  HF TOTAL ENERGY
            mp2 / def2-qzvpd               for  MP2 TOTAL ENERGY
             hf / def2-svpd                for  HF TOTAL ENERGY
            mp2 / def2-svpd                for  MP2 TOTAL ENERGY
           ccsd / def2-svpd                for  CCSD TOTAL ENERGY
        ccsd(t) / def2-svpd                for  CCSD(T) TOTAL ENERGY
             hf / def2-tzvpd               for  HF TOTAL ENERGY
            mp2 / def2-tzvpd               for  MP2 TOTAL ENERGY
           ccsd / def2-tzvpd               for  CCSD TOTAL ENERGY
        ccsd(t) / def2-tzvpd               for  CCSD(T) TOTAL ENERGY

  //>>>>>>>>>>>>>>>>>>>>>>>>>>>>>>>>>>>//
  // CBS Computation: MP2 / DEF2-QZVPD //
  //<<<<<<<<<<<<<<<<<<<<<<<<<<<<<<<<<<<//

    SCF Algorithm Type (re)set to DF.

*** tstart() called on node75.bme.utexas.edu
*** at Mon Feb 28 03:23:21 2022

   => Loading Basis Set <=

    Name: DEF2-QZVPD
    Role: ORBITAL
    Keyword: BASIS
    atoms 1   entry LA         line  3634 (ECP: line  5113) file /home/jtg2769/poltype/miniconda3/envs/p4env/share/psi4/basis/def2-qzvpd.gbs 
    atoms 2   entry O          line   305 file /home/jtg2769/poltype/miniconda3/envs/p4env/share/psi4/basis/def2-qzvpd.gbs 
    atoms 3-4 entry H          line    14 file /home/jtg2769/poltype/miniconda3/envs/p4env/share/psi4/basis/def2-qzvpd.gbs 

    !!!  WARNING: ECP capability is in beta. Please check occupations closely.  !!!


         ---------------------------------------------------------
                                   SCF
               by Justin Turney, Rob Parrish, Andy Simmonett
                          and Daniel G. A. Smith
                              RHF Reference
                        1 Threads,  47683 MiB Core
         ---------------------------------------------------------

  ==> Geometry <==

    Molecular point group: cs
    Full point group: Cs

    Geometry (in Angstrom), charge = 3, multiplicity = 1:

       Center              X                  Y                   Z               Mass       
    ------------   -----------------  -----------------  -----------------  -----------------
         LA          -0.069738483611    -0.504987463926     0.000000000000   138.906356300000
         O            0.527638516389     3.828693536074     0.000000000000    15.994914619570
         H            0.618949516389     4.418595536074     0.761699000000     1.007825032230
         H            0.618949516389     4.418595536074    -0.761699000000     1.007825032230

  Running in cs symmetry.

  Rotational constants: A =     14.41290  B =      0.05349  C =      0.05329 [cm^-1]
  Rotational constants: A = 432087.98154  B =   1603.64013  C =   1597.71214 [MHz]
  Nuclear repulsion =   22.056068126871462

  Charge       = 3
  Multiplicity = 1
  Electrons    = 18
  Nalpha       = 9
  Nbeta        = 9

  ==> Algorithm <==

  SCF Algorithm Type is DF.
  DIIS enabled.
  MOM disabled.
  Fractional occupation disabled.
  Guess Type is SAD.
  Energy threshold   = 1.00e-08
  Density threshold  = 1.00e-08
  Integral threshold = 0.00e+00

  ==> Primary Basis <==

  Basis Set: DEF2-QZVPD
    Blend: DEF2-QZVPD
    Number of shells: 62
    Number of basis function: 204
    Number of Cartesian functions: 249
    Spherical Harmonics?: true
    Max angular momentum: 4

  Core potential: DEF2-QZVPD
    Number of shells: 4
    Number of ECP primitives: 10
    Number of ECP core electrons: 46
    Max angular momentum: 3

   => Loading Basis Set <=

    Name: (DEF2-QZVPD AUX)
    Role: JKFIT
    Keyword: DF_BASIS_SCF
    atoms 1   entry LA         line  5333 file /home/jtg2769/poltype/miniconda3/envs/p4env/share/psi4/basis/def2-qzvp-jkfit.gbs 
    atoms 2   entry O          line   323 file /home/jtg2769/poltype/miniconda3/envs/p4env/share/psi4/basis/def2-qzvp-jkfit.gbs 
    atoms 3-4 entry H          line    23 file /home/jtg2769/poltype/miniconda3/envs/p4env/share/psi4/basis/def2-qzvp-jkfit.gbs 

  ==> Pre-Iterations <==

   -------------------------------------------------------
    Irrep   Nso     Nmo     Nalpha   Nbeta   Ndocc  Nsocc
   -------------------------------------------------------
     A'       122     122       0       0       0       0
     A"        82      82       0       0       0       0
   -------------------------------------------------------
    Total     204     204       9       9       9       0
   -------------------------------------------------------

  ==> Integral Setup <==

  DFHelper Memory: AOs need 0.115 GiB; user supplied 34.925 GiB. Using in-core AOs.

  ==> MemDFJK: Density-Fitted J/K Matrices <==

    J tasked:                   Yes
    K tasked:                   Yes
    wK tasked:                   No
    OpenMP threads:               1
    Memory [MiB]:             35762
    Algorithm:                 Core
    Schwarz Cutoff:           1E-12
    Mask sparsity (%):       3.8831
    Fitting Condition:        1E-10

   => Auxiliary Basis Set <=

  Basis Set: (DEF2-QZVPD AUX)
    Blend: DEF2-QZVP-JKFIT
    Number of shells: 82
    Number of basis function: 340
    Number of Cartesian functions: 474
    Spherical Harmonics?: true
    Max angular momentum: 6

  Minimum eigenvalue in the overlap matrix is 1.1801195212E-04.
  Using Symmetric Orthogonalization.

  SCF Guess: Superposition of Atomic Densities via on-the-fly atomic UHF.

  ==> Iterations <==

                           Total Energy        Delta E     RMS |[F,P]|

   @DF-RHF iter SAD:  -106.42322114158301   -1.06423e+02   0.00000e+00 
   @DF-RHF iter   1:  -105.87353458798593    5.49687e-01   3.29411e-03 DIIS
   @DF-RHF iter   2:  -105.94593904048595   -7.24045e-02   2.01926e-03 DIIS
   @DF-RHF iter   3:  -105.97293279450172   -2.69938e-02   2.04898e-04 SOSCF, nmicro=5
   @DF-RHF iter   4:  -105.97359205465676   -6.59260e-04   2.91116e-06 SOSCF, nmicro=5
   @DF-RHF iter   5:  -105.97359218731144   -1.32655e-07   3.72713e-08 SOSCF, nmicro=5
   @DF-RHF iter   6:  -105.97359218733288   -2.14442e-11   8.37175e-10 SOSCF, nmicro=conv
  Energy and wave function converged.


  ==> Post-Iterations <==

    Orbital Energies [Eh]
    ---------------------

    Doubly Occupied:                                                      

       1Ap   -20.919780     2Ap    -2.645995     1App   -1.841090  
       3Ap    -1.841008     4Ap    -1.839659     5Ap    -1.699475  
       2App   -1.062264     6Ap    -0.948041     7Ap    -0.865160  

    Virtual:                                                              

       8Ap    -0.640490     3App   -0.640488     4App   -0.638644  
       9Ap    -0.638429    10Ap    -0.637191    11Ap    -0.593675  
       5App   -0.468728    12Ap    -0.468132    13Ap    -0.459289  
      14Ap    -0.309533     6App   -0.305781    15Ap    -0.305745  
       7App   -0.303377    16Ap    -0.301631    17Ap    -0.296106  
       8App   -0.264715    18Ap    -0.262194    19Ap    -0.261642  
       9App   -0.261552    20Ap    -0.261455    10App   -0.260087  
      21Ap    -0.259762    11App   -0.259492    22Ap    -0.258344  
      23Ap    -0.246755    24Ap    -0.186907    25Ap    -0.180028  
      12App   -0.177861    26Ap    -0.161663    27Ap    -0.126932  
      28Ap    -0.123400    13App   -0.123112    14App   -0.119789  
      29Ap    -0.115176    30Ap    -0.105675    15App   -0.071435  
      31Ap    -0.064941    16App   -0.053804    17App   -0.019158  
      32Ap    -0.017189    33Ap    -0.004098    34Ap     0.044637  
      18App    0.046727    19App    0.065434    35Ap     0.069065  
      36Ap     0.072246    37Ap     0.074392    38Ap     0.099108  
      20App    0.102664    21App    0.103686    39Ap     0.104030  
      22App    0.106305    40Ap     0.124027    41Ap     0.126629  
      42Ap     0.133874    23App    0.135098    24App    0.151709  
      43Ap     0.159696    25App    0.159698    44Ap     0.161514  
      26App    0.161965    45Ap     0.173534    27App    0.209351  
      46Ap     0.212092    28App    0.216856    47Ap     0.236050  
      48Ap     0.250272    49Ap     0.310183    50Ap     0.326516  
      29App    0.377906    51Ap     0.379853    30App    0.445239  
      52Ap     0.477404    53Ap     0.539795    31App    0.539808  
      54Ap     0.554002    32App    0.567776    33App    0.570353  
      55Ap     0.617127    56Ap     0.644902    34App    0.749125  
      57Ap     0.766590    58Ap     0.860612    35App    0.881613  
      59Ap     0.917814    60Ap     1.027203    61Ap     1.031279  
      36App    1.031315    37App    1.035500    62Ap     1.055647  
      38App    1.067581    63Ap     1.068768    64Ap     1.113137  
      39App    1.179375    65Ap     1.215881    40App    1.267879  
      66Ap     1.307106    67Ap     1.426571    68Ap     1.471345  
      41App    1.483942    69Ap     1.758770    70Ap     1.800955  
      42App    1.886389    71Ap     1.905651    43App    2.124285  
      44App    2.134021    45App    2.335361    72Ap     2.336374  
      46App    2.341650    47App    2.495444    73Ap     2.506456  
      48App    2.534254    74Ap     2.587814    75Ap     2.601530  
      76Ap     2.806510    49App    3.020697    77Ap     3.172536  
      50App    3.193250    78Ap     3.445669    79Ap     3.661399  
      80Ap     3.872305    51App    3.881831    81Ap     3.912832  
      52App    4.051167    82Ap     4.194957    83Ap     4.238091  
      84Ap     4.248599    53App    4.387119    54App    4.554677  
      55App    4.810364    85Ap     4.835097    86Ap     5.352942  
      87Ap     5.359461    56App    5.495013    88Ap     5.656482  
      57App    5.915420    89Ap     5.917583    58App    6.016667  
      59App    6.400054    90Ap     6.465879    60App    6.745826  
      91Ap     6.987437    61App    7.140041    92Ap     7.247814  
      62App    7.266758    93Ap     7.374554    63App    7.381335  
      64App    7.457895    94Ap     7.504948    95Ap     7.699750  
      96Ap     7.702198    97Ap     7.791338    65App    7.840174  
      98Ap     7.871136    66App    7.878674    67App    7.994884  
      99Ap     8.107333    68App    8.330435   100Ap     8.563024  
      69App    8.627095    70App    8.785544   101Ap     8.800198  
     102Ap     9.059769    71App    9.152989   103Ap     9.972064  
     104Ap     9.984215   105Ap    10.375738    72App   10.414253  
      73App   10.839844   106Ap    10.880771   107Ap    11.078936  
      74App   11.089033    75App   11.281350   108Ap    11.320037  
     109Ap    11.441900    76App   11.447865   110Ap    11.516746  
     111Ap    11.618908   112Ap    11.711930   113Ap    11.934712  
     114Ap    11.962353    77App   12.009359    78App   12.071623  
     115Ap    12.477613    79App   13.060411    80App   13.638359  
     116Ap    13.844630   117Ap    13.872056    81App   14.237245  
     118Ap    14.628009   119Ap    16.889439    82App   16.949044  
     120Ap    32.877407   121Ap    49.294151   122Ap   256.434889  

    Final Occupation by Irrep:
             Ap   App 
    DOCC [     7,    2 ]

  @DF-RHF Final Energy:  -105.97359218733288

   => Energetics <=

    Nuclear Repulsion Energy =             22.0560681268714625
    One-Electron Energy =                -188.7343758998823375
    Two-Electron Energy =                  60.7047155856779952
    Total Energy =                       -105.9735921873328834

Computation Completed


Properties will be evaluated at   0.000000,   0.000000,   0.000000 [a0]

Properties computed using the SCF density matrix

  Nuclear Dipole Moment: [e a0]
     X:     8.8664      Y:    64.0842      Z:     0.0000

  Electronic Dipole Moment: [e a0]
     X:    -9.0783      Y:   -65.7145      Z:     0.0000

  Dipole Moment: [e a0]
     X:    -0.2119      Y:    -1.6303      Z:     0.0000     Total:     1.6441

  Dipole Moment: [D]
     X:    -0.5386      Y:    -4.1439      Z:     0.0000     Total:     4.1788


*** tstop() called on node75.bme.utexas.edu at Mon Feb 28 03:23:34 2022
Module time:
	user time   =      12.63 seconds =       0.21 minutes
	system time =       0.08 seconds =       0.00 minutes
	total time  =         13 seconds =       0.22 minutes
Total time:
	user time   =      12.63 seconds =       0.21 minutes
	system time =       0.08 seconds =       0.00 minutes
	total time  =         13 seconds =       0.22 minutes

*** tstart() called on node75.bme.utexas.edu
*** at Mon Feb 28 03:23:34 2022


  //>>>>>>>>>>>>>>>>>>>>>>>>>>>>>>>>>>>//
  //               DFMP2               //
  //<<<<<<<<<<<<<<<<<<<<<<<<<<<<<<<<<<<//

   => Loading Basis Set <=

    Name: (DEF2-QZVPD AUX)
    Role: RIFIT
    Keyword: DF_BASIS_MP2
    atoms 1   entry LA         line  5314 file /home/jtg2769/poltype/miniconda3/envs/p4env/share/psi4/basis/def2-qzvpp-ri.gbs 
    atoms 2   entry O          line   406 file /home/jtg2769/poltype/miniconda3/envs/p4env/share/psi4/basis/def2-qzvpp-ri.gbs 
    atoms 3-4 entry H          line    24 file /home/jtg2769/poltype/miniconda3/envs/p4env/share/psi4/basis/def2-qzvpp-ri.gbs 

	 --------------------------------------------------------
	                          DF-MP2                         
	      2nd-Order Density-Fitted Moller-Plesset Theory     
	              RMP2 Wavefunction,   1 Threads             
	                                                         
	        Rob Parrish, Justin Turney, Andy Simmonett,      
	           Ed Hohenstein, and C. David Sherrill          
	 --------------------------------------------------------

   => Auxiliary Basis Set <=

  Basis Set: (DEF2-QZVPD AUX)
    Blend: DEF2-QZVPP-RI
    Number of shells: 111
    Number of basis function: 505
    Number of Cartesian functions: 724
    Spherical Harmonics?: true
    Max angular momentum: 6

	 --------------------------------------------------------
	                 NBF =   204, NAUX =   505
	 --------------------------------------------------------
	   CLASS    FOCC     OCC    AOCC    AVIR     VIR    FVIR
	   PAIRS       0       9       9     195     195       0
	 --------------------------------------------------------

	-----------------------------------------------------------
	 ==================> DF-MP2 Energies <==================== 
	-----------------------------------------------------------
	 Reference Energy          =    -105.9735921873328834 [Eh]
	 Singles Energy            =      -0.0000000000000000 [Eh]
	 Same-Spin Energy          =      -0.1097158043055793 [Eh]
	 Opposite-Spin Energy      =      -0.3575746398697645 [Eh]
	 Correlation Energy        =      -0.4672904441753438 [Eh]
	 Total Energy              =    -106.4408826315082308 [Eh]
	-----------------------------------------------------------
	 ================> DF-SCS-MP2 Energies <================== 
	-----------------------------------------------------------
	 SCS Same-Spin Scale       =       0.3333333333333333 [-]
	 SCS Opposite-Spin Scale   =       1.2000000000000000 [-]
	 SCS Same-Spin Energy      =      -0.0365719347685264 [Eh]
	 SCS Opposite-Spin Energy  =      -0.4290895678437174 [Eh]
	 SCS Correlation Energy    =      -0.4656615026122438 [Eh]
	 SCS Total Energy          =    -106.4392536899451329 [Eh]
	-----------------------------------------------------------


*** tstop() called on node75.bme.utexas.edu at Mon Feb 28 03:23:36 2022
Module time:
	user time   =       1.48 seconds =       0.02 minutes
	system time =       0.05 seconds =       0.00 minutes
	total time  =          2 seconds =       0.03 minutes
Total time:
	user time   =      14.11 seconds =       0.24 minutes
	system time =       0.13 seconds =       0.00 minutes
	total time  =         15 seconds =       0.25 minutes

  //>>>>>>>>>>>>>>>>>>>>>>>>>>>>>>>>>>>>>>//
  // CBS Computation: CCSD(T) / DEF2-SVPD //
  //<<<<<<<<<<<<<<<<<<<<<<<<<<<<<<<<<<<<<<//


*** tstart() called on node75.bme.utexas.edu
*** at Mon Feb 28 03:23:36 2022

   => Loading Basis Set <=

    Name: DEF2-SVPD
    Role: ORBITAL
    Keyword: BASIS
    atoms 1   entry LA         line  2014 (ECP: line  3140) file /home/jtg2769/poltype/miniconda3/envs/p4env/share/psi4/basis/def2-svpd.gbs 
    atoms 2   entry O          line   149 file /home/jtg2769/poltype/miniconda3/envs/p4env/share/psi4/basis/def2-svpd.gbs 
    atoms 3-4 entry H          line    14 file /home/jtg2769/poltype/miniconda3/envs/p4env/share/psi4/basis/def2-svpd.gbs 

    !!!  WARNING: ECP capability is in beta. Please check occupations closely.  !!!


         ---------------------------------------------------------
                                   SCF
               by Justin Turney, Rob Parrish, Andy Simmonett
                          and Daniel G. A. Smith
                              RHF Reference
                        1 Threads,  47683 MiB Core
         ---------------------------------------------------------

  ==> Geometry <==

    Molecular point group: cs
    Full point group: Cs

    Geometry (in Angstrom), charge = 3, multiplicity = 1:

       Center              X                  Y                   Z               Mass       
    ------------   -----------------  -----------------  -----------------  -----------------
         LA          -0.069738483611    -0.504987463926     0.000000000000   138.906356300000
         O            0.527638516389     3.828693536074     0.000000000000    15.994914619570
         H            0.618949516389     4.418595536074     0.761699000000     1.007825032230
         H            0.618949516389     4.418595536074    -0.761699000000     1.007825032230

  Running in cs symmetry.

  Rotational constants: A =     14.41290  B =      0.05349  C =      0.05329 [cm^-1]
  Rotational constants: A = 432087.98154  B =   1603.64013  C =   1597.71214 [MHz]
  Nuclear repulsion =   22.056068126871462

  Charge       = 3
  Multiplicity = 1
  Electrons    = 18
  Nalpha       = 9
  Nbeta        = 9

  ==> Algorithm <==

  SCF Algorithm Type is PK.
  DIIS enabled.
  MOM disabled.
  Fractional occupation disabled.
  Guess Type is SAD.
  Energy threshold   = 1.00e-08
  Density threshold  = 1.00e-08
  Integral threshold = 0.00e+00

  ==> Primary Basis <==

  Basis Set: DEF2-SVPD
    Blend: DEF2-SVPD
    Number of shells: 30
    Number of basis function: 74
    Number of Cartesian functions: 81
    Spherical Harmonics?: true
    Max angular momentum: 3

  Core potential: DEF2-SVPD
    Number of shells: 4
    Number of ECP primitives: 10
    Number of ECP core electrons: 46
    Max angular momentum: 3

  ==> Pre-Iterations <==

   -------------------------------------------------------
    Irrep   Nso     Nmo     Nalpha   Nbeta   Ndocc  Nsocc
   -------------------------------------------------------
     A'        48      48       0       0       0       0
     A"        26      26       0       0       0       0
   -------------------------------------------------------
    Total      74      74       9       9       9       0
   -------------------------------------------------------

  ==> Integral Setup <==

  Using in-core PK algorithm.
   Calculation information:
      Number of atoms:                   4
      Number of AO shells:              30
      Number of primitives:             47
      Number of atomic orbitals:        81
      Number of basis functions:        74

      Integral cutoff                 1.00e-12
      Number of threads:                 1

  Performing in-core PK
  Using 7703400 doubles for integral storage.
  We computed 99318 shell quartets total.
  Whereas there are 108345 unique shell quartets.

  ==> DiskJK: Disk-Based J/K Matrices <==

    J tasked:                  Yes
    K tasked:                  Yes
    wK tasked:                  No
    Memory [MiB]:            35762
    Schwarz Cutoff:          1E-12

    OpenMP threads:              1

  Minimum eigenvalue in the overlap matrix is 4.7729215370E-03.
  Using Symmetric Orthogonalization.

  SCF Guess: Superposition of Atomic Densities via on-the-fly atomic UHF.

  ==> Iterations <==

                        Total Energy        Delta E     RMS |[F,P]|

   @RHF iter SAD:  -106.40610077947981   -1.06406e+02   0.00000e+00 
   @RHF iter   1:  -105.80446794349737    6.01633e-01   7.69873e-03 DIIS
   @RHF iter   2:  -105.85699534841490   -5.25274e-02   4.67233e-03 DIIS
   @RHF iter   3:  -105.88002461501124   -2.30293e-02   4.56886e-04 SOSCF, nmicro=5
   @RHF iter   4:  -105.88052312565866   -4.98511e-04   5.25071e-06 SOSCF, nmicro=5
   @RHF iter   5:  -105.88052318949775   -6.38391e-08   5.95312e-08 SOSCF, nmicro=5
   @RHF iter   6:  -105.88052318950858   -1.08287e-11   1.09172e-09 SOSCF, nmicro=conv
  Energy and wave function converged.


  ==> Post-Iterations <==

    Orbital Energies [Eh]
    ---------------------

    Doubly Occupied:                                                      

       1Ap   -20.925640     2Ap    -2.647708     1App   -1.842403  
       3Ap    -1.842319     4Ap    -1.840962     5Ap    -1.682996  
       2App   -1.065847     6Ap    -0.949833     7Ap    -0.867083  

    Virtual:                                                              

       8Ap    -0.641274     3App   -0.641272     4App   -0.639417  
       9Ap    -0.639202    10Ap    -0.637943    11Ap    -0.592936  
       5App   -0.463967    12Ap    -0.463344    13Ap    -0.454264  
      14Ap    -0.307981     6App   -0.299604    15Ap    -0.299594  
       7App   -0.296529    16Ap    -0.294211    17Ap    -0.284743  
       8App   -0.255976    18Ap    -0.254823    19Ap    -0.251498  
      20Ap    -0.184052     9App   -0.169211    21Ap    -0.139750  
      22Ap    -0.137908    10App   -0.078060    23Ap    -0.065641  
      11App   -0.065641    24Ap    -0.064172    12App   -0.064104  
      25Ap    -0.052818    26Ap    -0.024759    13App   -0.024651  
      27Ap     0.021568    14App    0.022104    28Ap     0.069596  
      29Ap     0.085951    15App    0.157962    30Ap     0.168475  
      16App    0.170166    31Ap     0.191922    32Ap     0.199757  
      17App    0.213945    18App    0.296179    33Ap     0.313212  
      34Ap     0.337030    35Ap     0.339099    19App    0.404969  
      36Ap     0.409022    37Ap     0.802827    20App    0.909304  
      38Ap     1.138819    39Ap     1.147075    21App    1.428784  
      40Ap     1.564377    22App    1.572615    41Ap     1.739513  
      42Ap     1.863650    23App    1.873241    24App    2.227296  
      43Ap     2.343163    44Ap     3.012607    25App    3.070519  
      45Ap     3.229971    46Ap     3.661749    26App    4.084985  
      47Ap    10.840712    48Ap    32.860045  

    Final Occupation by Irrep:
             Ap   App 
    DOCC [     7,    2 ]

  @RHF Final Energy:  -105.88052318950858

   => Energetics <=

    Nuclear Repulsion Energy =             22.0560681268714625
    One-Electron Energy =                -188.5435981411132786
    Two-Electron Energy =                  60.6070068247332472
    Total Energy =                       -105.8805231895085797

Computation Completed


Properties will be evaluated at   0.000000,   0.000000,   0.000000 [a0]

Properties computed using the SCF density matrix

  Nuclear Dipole Moment: [e a0]
     X:     8.8664      Y:    64.0842      Z:     0.0000

  Electronic Dipole Moment: [e a0]
     X:    -9.0776      Y:   -65.7123      Z:     0.0000

  Dipole Moment: [e a0]
     X:    -0.2113      Y:    -1.6282      Z:     0.0000     Total:     1.6418

  Dipole Moment: [D]
     X:    -0.5370      Y:    -4.1384      Z:     0.0000     Total:     4.1731


*** tstop() called on node75.bme.utexas.edu at Mon Feb 28 03:23:39 2022
Module time:
	user time   =       2.98 seconds =       0.05 minutes
	system time =       0.02 seconds =       0.00 minutes
	total time  =          3 seconds =       0.05 minutes
Total time:
	user time   =      17.10 seconds =       0.28 minutes
	system time =       0.15 seconds =       0.00 minutes
	total time  =         18 seconds =       0.30 minutes
 MINTS: Wrapper to libmints.
   by Justin Turney

   Calculation information:
      Number of threads:                 1
      Number of atoms:                   4
      Number of AO shells:              30
      Number of SO shells:              26
      Number of primitives:             47
      Number of atomic orbitals:        81
      Number of basis functions:        74

      Number of irreps:                  2
      Integral cutoff                 0.00e+00
      Number of functions per irrep: [  48   26 ]

 OEINTS: Overlap, kinetic, potential, dipole, and quadrupole integrals
         stored in file 35.

      Computing two-electron integrals...done
      Computed 1871860 non-zero two-electron integrals.
        Stored in file 33.


*** tstart() called on node75.bme.utexas.edu
*** at Mon Feb 28 03:23:40 2022


	Wfn Parameters:
	--------------------
	Wavefunction         = CCSD_T
	Number of irreps     = 2
	Number of MOs        = 74
	Number of active MOs = 74
	AO-Basis             = NONE
	Semicanonical        = false
	Reference            = RHF
	Print Level          = 1

	IRREP	# MOs	# FZDC	# DOCC	# SOCC	# VIRT	# FZVR
	-----	-----	------	------	------	------	------
	 Ap	   48	    0	    7	    0	    41	    0
	 App	   26	    0	    2	    0	    24	    0
	Transforming integrals...
	IWL integrals will be deleted.
	(OO|OO)...
	Presorting SO-basis two-electron integrals.
	Sorting File: SO Ints (nn|nn) nbuckets = 1
	Transforming the one-electron integrals and constructing Fock matrices
	Starting first half-transformation.
	Sorting half-transformed integrals.
	First half integral transformation complete.
	Starting second half-transformation.
	Two-electron integral transformation complete.
	(OO|OV)...
	Starting second half-transformation.
	Two-electron integral transformation complete.
	(OO|VV)...
	Starting second half-transformation.
	Two-electron integral transformation complete.
	(OV|OO)...
	Starting first half-transformation.
	Sorting half-transformed integrals.
	First half integral transformation complete.
	Starting second half-transformation.
	Two-electron integral transformation complete.
	(OV|OV)...
	Starting second half-transformation.
	Two-electron integral transformation complete.
	(OV|VV)...
	Starting second half-transformation.
	Two-electron integral transformation complete.
	(VV|OO)...
	Starting first half-transformation.
	Sorting half-transformed integrals.
	First half integral transformation complete.
	Starting second half-transformation.
	Two-electron integral transformation complete.
	(VV|OV)...
	Starting second half-transformation.
	Two-electron integral transformation complete.
	(VV|VV)...
	Starting second half-transformation.
	Two-electron integral transformation complete.
	Frozen core energy     =      0.00000000000000

	Size of irrep 0 of <ab|cd> integrals:      5.094 (MW) /     40.752 (MB)
	Size of irrep 1 of <ab|cd> integrals:      3.873 (MW) /     30.984 (MB)
	Total:                                     8.967 (MW) /     71.737 (MB)

	Size of irrep 0 of <ia|bc> integrals:      0.756 (MW) /      6.049 (MB)
	Size of irrep 1 of <ia|bc> integrals:      0.492 (MW) /      3.936 (MB)
	Total:                                     1.248 (MW) /      9.985 (MB)

	Size of irrep 0 of tijab amplitudes:       0.120 (MW) /      0.957 (MB)
	Size of irrep 1 of tijab amplitudes:       0.055 (MW) /      0.441 (MB)
	Total:                                     0.175 (MW) /      1.398 (MB)

	Nuclear Rep. energy          =     22.05606812687146
	SCF energy                   =   -105.88052318950858
	One-electron energy          =   -188.54359830815602
	Two-electron energy          =     60.60700699177342
	Reference energy             =   -105.88052318951114

*** tstop() called on node75.bme.utexas.edu at Mon Feb 28 03:23:43 2022
Module time:
	user time   =       0.78 seconds =       0.01 minutes
	system time =       0.41 seconds =       0.01 minutes
	total time  =          3 seconds =       0.05 minutes
Total time:
	user time   =      19.00 seconds =       0.32 minutes
	system time =       0.60 seconds =       0.01 minutes
	total time  =         22 seconds =       0.37 minutes
            **************************
            *                        *
            *        CCENERGY        *
            *                        *
            **************************

    Nuclear Rep. energy (wfn)     =   22.056068126871462
    SCF energy          (wfn)     = -105.880523189508580
    Reference energy    (file100) = -105.880523189511138

    Input parameters:
    -----------------
    Wave function   =     CCSD_T
    Reference wfn   =     RHF
    Brueckner       =     No
    Memory (Mbytes) =     50000.0
    Maxiter         =     50
    R_Convergence   =     1.0e-07
    E_Convergence   =     1.0e-06
    Restart         =     Yes
    DIIS            =     Yes
    AO Basis        =     NONE
    ABCD            =     NEW
    Cache Level     =     2
    Cache Type      =     LOW
    Print Level     =     1
    Num. of threads =     1
    # Amps to Print =     10
    Print MP2 Amps? =     No
    Analyze T2 Amps =     No
    Print Pair Ener =     No
    Local CC        =     No
    SCS-MP2         =     False
    SCSN-MP2        =     False
    SCS-CCSD        =     False

MP2 correlation energy -0.2924564166154233
                Solving CC Amplitude Equations
                ------------------------------
  Iter             Energy              RMS        T1Diag      D1Diag    New D1Diag    D2Diag
  ----     ---------------------    ---------   ----------  ----------  ----------   --------
     0        -0.292456416615423    0.000e+00    0.000000    0.000000    0.000000    0.112747
     1        -0.299435178966795    4.654e-02    0.008319    0.023162    0.023162    0.117116
     2        -0.304639059843774    1.706e-02    0.008323    0.022625    0.022625    0.121442
     3        -0.306196049382650    1.318e-02    0.009734    0.027313    0.027313    0.123207
     4        -0.306595825702886    7.037e-03    0.010627    0.030363    0.030363    0.123901
     5        -0.306604226275109    4.915e-03    0.011320    0.032683    0.032683    0.124154
     6        -0.306561358745081    4.238e-03    0.012004    0.034837    0.034837    0.124224
     7        -0.306568967936712    2.892e-03    0.012593    0.036594    0.036594    0.124229
     8        -0.306601348801692    2.191e-03    0.013479    0.039581    0.039581    0.124184
     9        -0.306565153948539    1.840e-03    0.013819    0.041223    0.041223    0.124126
    10        -0.306577782090332    1.369e-03    0.014232    0.043667    0.043667    0.124097
    11        -0.306594541903426    9.653e-04    0.015010    0.047890    0.047890    0.124125
    12        -0.306601637704792    6.651e-04    0.015082    0.048804    0.048804    0.124158
    13        -0.306612330226518    4.013e-04    0.015252    0.050012    0.050012    0.124185
    14        -0.306620018529949    2.460e-04    0.015373    0.050724    0.050724    0.124202
    15        -0.306619364855099    1.371e-04    0.015355    0.050608    0.050608    0.124200
    16        -0.306620285847387    8.466e-05    0.015358    0.050642    0.050642    0.124202
    17        -0.306620754433340    5.309e-05    0.015375    0.050719    0.050719    0.124201
    18        -0.306620720742465    2.673e-05    0.015379    0.050737    0.050737    0.124200
    19        -0.306620519530920    2.032e-05    0.015380    0.050732    0.050732    0.124200
    20        -0.306620387586108    1.203e-05    0.015383    0.050747    0.050747    0.124199
    21        -0.306620346304953    7.918e-06    0.015384    0.050750    0.050750    0.124199
    22        -0.306620355794951    6.347e-06    0.015385    0.050758    0.050758    0.124199
    23        -0.306620380885932    5.425e-06    0.015387    0.050767    0.050767    0.124199
    24        -0.306620401955788    4.429e-06    0.015388    0.050776    0.050776    0.124200
    25        -0.306620423370549    3.242e-06    0.015389    0.050781    0.050781    0.124200
    26        -0.306620429279512    2.474e-06    0.015389    0.050783    0.050783    0.124200
    27        -0.306620427928179    2.141e-06    0.015389    0.050783    0.050783    0.124200
    28        -0.306620424803055    1.856e-06    0.015389    0.050783    0.050783    0.124200
    29        -0.306620419269790    1.540e-06    0.015389    0.050782    0.050782    0.124199
    30        -0.306620414169721    1.198e-06    0.015388    0.050780    0.050780    0.124199
    31        -0.306620408481630    8.339e-07    0.015388    0.050778    0.050778    0.124199
    32        -0.306620406105899    5.971e-07    0.015388    0.050777    0.050777    0.124199
    33        -0.306620405398784    4.053e-07    0.015388    0.050776    0.050776    0.124199
    34        -0.306620405138109    2.564e-07    0.015387    0.050776    0.050776    0.124199
    35        -0.306620404875229    1.972e-07    0.015387    0.050776    0.050776    0.124199
    36        -0.306620404567550    1.649e-07    0.015387    0.050776    0.050776    0.124199
    37        -0.306620404351659    1.194e-07    0.015387    0.050776    0.050776    0.124199
    38        -0.306620404178083    9.640e-08    0.015387    0.050776    0.050776    0.124199

    Iterations converged.


    Largest TIA Amplitudes:
              6   1        -0.0437688614
              5   2        -0.0224635116
              5   3         0.0185972345
              6  14         0.0178731615
              5   5         0.0143852698
              6  21        -0.0118125895
              5  13        -0.0107916061
              6  17         0.0076468944
              6   4         0.0072659549
              5  20         0.0070699395

    Largest TIjAb Amplitudes:
      3   3   2   2        -0.0348569148
      6   6  30  30        -0.0348492421
      5   5  31  31        -0.0282738508
      7   7   0   0        -0.0278220974
      3   3  42  42        -0.0273384798
      3   3   1   1        -0.0272989873
      2   2  41  41        -0.0272945343
      7   7  41  41        -0.0272884383
      7   7  42  42        -0.0272360699
      2   2   1   1        -0.0272045781

    SCF energy       (wfn)                    = -105.880523189508580
    Reference energy (file100)                = -105.880523189511138

    Opposite-spin MP2 correlation energy      =   -0.216242156495726
    Same-spin MP2 correlation energy          =   -0.076214260119697
    MP2 correlation energy                    =   -0.292456416615423
      * MP2 total energy                      = -106.172979606126560

    Opposite-spin CCSD correlation energy     =   -0.236407149468256
    Same-spin CCSD correlation energy         =   -0.070213254709828
    CCSD correlation energy                   =   -0.306620404178083
      * CCSD total energy                     = -106.187143593689214

            **************************
            *                        *
            *        CCTRIPLES       *
            *                        *
            **************************


    Wave function   =    CCSD_T
    Reference wfn   =      RHF

    Nuclear Rep. energy (wfn)                =   22.056068126871462
    SCF energy          (wfn)                = -105.880523189508580
    Reference energy    (file100)            = -105.880523189511138
    CCSD energy         (file100)            =   -0.306620404178083
    Total CCSD energy   (file100)            = -106.187143593689214

    Number of ijk index combinations:              165
    Memory available in words        :      6250000000
    ~Words needed per explicit thread:          275684
    Number of threads for explicit ijk threading:    1

    MKL num_threads set to 1 for explicit threading.

    (T) energy                                =   -0.006365641271179
      * CCSD(T) total energy                  = -106.193509234960402


  //>>>>>>>>>>>>>>>>>>>>>>>>>>>>>>>>>>>>>>>//
  // CBS Computation: CCSD(T) / DEF2-TZVPD //
  //<<<<<<<<<<<<<<<<<<<<<<<<<<<<<<<<<<<<<<<//


*** tstart() called on node75.bme.utexas.edu
*** at Mon Feb 28 03:24:14 2022

   => Loading Basis Set <=

    Name: DEF2-TZVPD
    Role: ORBITAL
    Keyword: BASIS
    atoms 1   entry LA         line  2525 (ECP: line  3764) file /home/jtg2769/poltype/miniconda3/envs/p4env/share/psi4/basis/def2-tzvpd.gbs 
    atoms 2   entry O          line   208 file /home/jtg2769/poltype/miniconda3/envs/p4env/share/psi4/basis/def2-tzvpd.gbs 
    atoms 3-4 entry H          line    14 file /home/jtg2769/poltype/miniconda3/envs/p4env/share/psi4/basis/def2-tzvpd.gbs 

    !!!  WARNING: ECP capability is in beta. Please check occupations closely.  !!!


         ---------------------------------------------------------
                                   SCF
               by Justin Turney, Rob Parrish, Andy Simmonett
                          and Daniel G. A. Smith
                              RHF Reference
                        1 Threads,  47683 MiB Core
         ---------------------------------------------------------

  ==> Geometry <==

    Molecular point group: cs
    Full point group: Cs

    Geometry (in Angstrom), charge = 3, multiplicity = 1:

       Center              X                  Y                   Z               Mass       
    ------------   -----------------  -----------------  -----------------  -----------------
         LA          -0.069738483611    -0.504987463926     0.000000000000   138.906356300000
         O            0.527638516389     3.828693536074     0.000000000000    15.994914619570
         H            0.618949516389     4.418595536074     0.761699000000     1.007825032230
         H            0.618949516389     4.418595536074    -0.761699000000     1.007825032230

  Running in cs symmetry.

  Rotational constants: A =     14.41290  B =      0.05349  C =      0.05329 [cm^-1]
  Rotational constants: A = 432087.98154  B =   1603.64013  C =   1597.71214 [MHz]
  Nuclear repulsion =   22.056068126871462

  Charge       = 3
  Multiplicity = 1
  Electrons    = 18
  Nalpha       = 9
  Nbeta        = 9

  ==> Algorithm <==

  SCF Algorithm Type is PK.
  DIIS enabled.
  MOM disabled.
  Fractional occupation disabled.
  Guess Type is SAD.
  Energy threshold   = 1.00e-08
  Density threshold  = 1.00e-08
  Integral threshold = 0.00e+00

  ==> Primary Basis <==

  Basis Set: DEF2-TZVPD
    Blend: DEF2-TZVPD
    Number of shells: 39
    Number of basis function: 101
    Number of Cartesian functions: 113
    Spherical Harmonics?: true
    Max angular momentum: 3

  Core potential: DEF2-TZVPD
    Number of shells: 4
    Number of ECP primitives: 10
    Number of ECP core electrons: 46
    Max angular momentum: 3

  ==> Pre-Iterations <==

   -------------------------------------------------------
    Irrep   Nso     Nmo     Nalpha   Nbeta   Ndocc  Nsocc
   -------------------------------------------------------
     A'        65      65       0       0       0       0
     A"        36      36       0       0       0       0
   -------------------------------------------------------
    Total     101     101       9       9       9       0
   -------------------------------------------------------

  ==> Integral Setup <==

  Using in-core PK algorithm.
   Calculation information:
      Number of atoms:                   4
      Number of AO shells:              39
      Number of primitives:             58
      Number of atomic orbitals:       113
      Number of basis functions:       101

      Integral cutoff                 1.00e-12
      Number of threads:                 1

  Performing in-core PK
  Using 26537952 doubles for integral storage.
  We computed 268418 shell quartets total.
  Whereas there are 304590 unique shell quartets.

  ==> DiskJK: Disk-Based J/K Matrices <==

    J tasked:                  Yes
    K tasked:                  Yes
    wK tasked:                  No
    Memory [MiB]:            35762
    Schwarz Cutoff:          1E-12

    OpenMP threads:              1

  Minimum eigenvalue in the overlap matrix is 1.3822547534E-03.
  Using Symmetric Orthogonalization.

  SCF Guess: Superposition of Atomic Densities via on-the-fly atomic UHF.

  ==> Iterations <==

                        Total Energy        Delta E     RMS |[F,P]|

   @RHF iter SAD:  -106.45105226943132   -1.06451e+02   0.00000e+00 
   @RHF iter   1:  -105.88709090756007    5.63961e-01   6.01169e-03 DIIS
   @RHF iter   2:  -105.94141284831163   -5.43219e-02   3.85272e-03 DIIS
   @RHF iter   3:  -105.96703209132208   -2.56192e-02   3.23773e-04 SOSCF, nmicro=5
   @RHF iter   4:  -105.96753863413917   -5.06543e-04   4.32570e-06 SOSCF, nmicro=5
   @RHF iter   5:  -105.96753869880266   -6.46635e-08   6.38940e-08 SOSCF, nmicro=5
   @RHF iter   6:  -105.96753869882296   -2.03073e-11   1.56552e-09 SOSCF, nmicro=conv
  Energy and wave function converged.


  ==> Post-Iterations <==

    Orbital Energies [Eh]
    ---------------------

    Doubly Occupied:                                                      

       1Ap   -20.920323     2Ap    -2.646176     1App   -1.841325  
       3Ap    -1.841239     4Ap    -1.839882     5Ap    -1.699065  
       2App   -1.061842     6Ap    -0.947781     7Ap    -0.864571  

    Virtual:                                                              

       8Ap    -0.640658     3App   -0.640656     4App   -0.638815  
       9Ap    -0.638591    10Ap    -0.637346    11Ap    -0.592805  
       5App   -0.462423    12Ap    -0.461722    13Ap    -0.454020  
      14Ap    -0.308038     6App   -0.299484    15Ap    -0.299473  
       7App   -0.297075    16Ap    -0.294543    17Ap    -0.285164  
       8App   -0.255058    18Ap    -0.253934    19Ap    -0.250956  
      20Ap    -0.200465     9App   -0.188393    21Ap    -0.170982  
      22Ap    -0.162021    10App   -0.099300    23Ap    -0.066867  
      24Ap    -0.065339    11App   -0.065339    12App   -0.063993  
      25Ap    -0.062447    26Ap    -0.060986    13App   -0.044476  
      27Ap    -0.038805    28Ap    -0.033039    14App   -0.028039  
      15App   -0.025965    29Ap     0.004117    30Ap     0.019678  
      31Ap     0.034165    16App    0.057734    32Ap     0.110052  
      17App    0.113464    33Ap     0.124592    18App    0.145349  
      34Ap     0.145760    19App    0.147496    35Ap     0.155587  
      36Ap     0.192444    20App    0.198381    37Ap     0.213358  
      21App    0.290354    38Ap     0.304069    39Ap     0.322553  
      40Ap     0.459706    22App    0.517081    41Ap     0.542986  
      42Ap     0.556980    23App    0.713627    43Ap     0.836138  
      24App    1.399887    44Ap     1.488560    45Ap     1.491607  
      25App    1.641569    46Ap     1.664385    26App    1.770328  
      47Ap     2.030006    27App    2.082979    48Ap     2.241197  
      49Ap     2.437983    28App    2.508101    50Ap     2.756925  
      29App    2.798658    51Ap     2.868415    52Ap     3.093357  
      53Ap     3.823246    30App    4.024129    54Ap     5.182918  
      55Ap     5.333461    56Ap     5.496614    31App    5.549772  
      32App    5.559744    33App    6.188329    57Ap     6.429090  
      58Ap     6.607348    34App    6.665255    59Ap     6.694071  
      60Ap     7.057829    35App    7.209464    61Ap    10.848247  
      62Ap    11.054410    36App   11.056978    63Ap    11.120104  
      64Ap    32.866355    65Ap    44.873176  

    Final Occupation by Irrep:
             Ap   App 
    DOCC [     7,    2 ]

  @RHF Final Energy:  -105.96753869882296

   => Energetics <=

    Nuclear Repulsion Energy =             22.0560681268714625
    One-Electron Energy =                -188.7228055407600777
    Two-Electron Energy =                  60.6991987150656556
    Total Energy =                       -105.9675386988229775

Computation Completed


Properties will be evaluated at   0.000000,   0.000000,   0.000000 [a0]

Properties computed using the SCF density matrix

  Nuclear Dipole Moment: [e a0]
     X:     8.8664      Y:    64.0842      Z:     0.0000

  Electronic Dipole Moment: [e a0]
     X:    -9.0791      Y:   -65.7203      Z:     0.0000

  Dipole Moment: [e a0]
     X:    -0.2127      Y:    -1.6361      Z:     0.0000     Total:     1.6499

  Dipole Moment: [D]
     X:    -0.5407      Y:    -4.1586      Z:     0.0000     Total:     4.1936


*** tstop() called on node75.bme.utexas.edu at Mon Feb 28 03:24:20 2022
Module time:
	user time   =       6.09 seconds =       0.10 minutes
	system time =       0.08 seconds =       0.00 minutes
	total time  =          6 seconds =       0.10 minutes
Total time:
	user time   =      30.89 seconds =       0.51 minutes
	system time =       4.21 seconds =       0.07 minutes
	total time  =         59 seconds =       0.98 minutes
 MINTS: Wrapper to libmints.
   by Justin Turney

   Calculation information:
      Number of threads:                 1
      Number of atoms:                   4
      Number of AO shells:              39
      Number of SO shells:              34
      Number of primitives:             58
      Number of atomic orbitals:       113
      Number of basis functions:       101

      Number of irreps:                  2
      Integral cutoff                 0.00e+00
      Number of functions per irrep: [  65   36 ]

 OEINTS: Overlap, kinetic, potential, dipole, and quadrupole integrals
         stored in file 35.

      Computing two-electron integrals...done
      Computed 6450934 non-zero two-electron integrals.
        Stored in file 33.


*** tstart() called on node75.bme.utexas.edu
*** at Mon Feb 28 03:24:23 2022


	Wfn Parameters:
	--------------------
	Wavefunction         = CCSD_T
	Number of irreps     = 2
	Number of MOs        = 101
	Number of active MOs = 101
	AO-Basis             = NONE
	Semicanonical        = false
	Reference            = RHF
	Print Level          = 1

	IRREP	# MOs	# FZDC	# DOCC	# SOCC	# VIRT	# FZVR
	-----	-----	------	------	------	------	------
	 Ap	   65	    0	    7	    0	    58	    0
	 App	   36	    0	    2	    0	    34	    0
	Transforming integrals...
	IWL integrals will be deleted.
	(OO|OO)...
	Presorting SO-basis two-electron integrals.
	Sorting File: SO Ints (nn|nn) nbuckets = 1
	Transforming the one-electron integrals and constructing Fock matrices
	Starting first half-transformation.
	Sorting half-transformed integrals.
	First half integral transformation complete.
	Starting second half-transformation.
	Two-electron integral transformation complete.
	(OO|OV)...
	Starting second half-transformation.
	Two-electron integral transformation complete.
	(OO|VV)...
	Starting second half-transformation.
	Two-electron integral transformation complete.
	(OV|OO)...
	Starting first half-transformation.
	Sorting half-transformed integrals.
	First half integral transformation complete.
	Starting second half-transformation.
	Two-electron integral transformation complete.
	(OV|OV)...
	Starting second half-transformation.
	Two-electron integral transformation complete.
	(OV|VV)...
	Starting second half-transformation.
	Two-electron integral transformation complete.
	(VV|OO)...
	Starting first half-transformation.
	Sorting half-transformed integrals.
	First half integral transformation complete.
	Starting second half-transformation.
	Two-electron integral transformation complete.
	(VV|OV)...
	Starting second half-transformation.
	Two-electron integral transformation complete.
	(VV|VV)...
	Starting second half-transformation.
	Two-electron integral transformation complete.
	Frozen core energy     =      0.00000000000000

	Size of irrep 0 of <ab|cd> integrals:     20.430 (MW) /    163.443 (MB)
	Size of irrep 1 of <ab|cd> integrals:     15.555 (MW) /    124.441 (MB)
	Total:                                    35.986 (MW) /    287.884 (MB)

	Size of irrep 0 of <ia|bc> integrals:      2.142 (MW) /     17.140 (MB)
	Size of irrep 1 of <ia|bc> integrals:      1.396 (MW) /     11.169 (MB)
	Total:                                     3.539 (MW) /     28.309 (MB)

	Size of irrep 0 of tijab amplitudes:       0.240 (MW) /      1.916 (MB)
	Size of irrep 1 of tijab amplitudes:       0.110 (MW) /      0.883 (MB)
	Total:                                     0.350 (MW) /      2.800 (MB)

	Nuclear Rep. energy          =     22.05606812687146
	SCF energy                   =   -105.96753869882296
	One-electron energy          =   -188.72280600003339
	Two-electron energy          =     60.69919917433743
	Reference energy             =   -105.96753869882450

*** tstop() called on node75.bme.utexas.edu at Mon Feb 28 03:24:28 2022
Module time:
	user time   =       3.07 seconds =       0.05 minutes
	system time =       1.27 seconds =       0.02 minutes
	total time  =          5 seconds =       0.08 minutes
Total time:
	user time   =      36.19 seconds =       0.60 minutes
	system time =       5.56 seconds =       0.09 minutes
	total time  =         67 seconds =       1.12 minutes
            **************************
            *                        *
            *        CCENERGY        *
            *                        *
            **************************

    Nuclear Rep. energy (wfn)     =   22.056068126871462
    SCF energy          (wfn)     = -105.967538698822963
    Reference energy    (file100) = -105.967538698824498

    Input parameters:
    -----------------
    Wave function   =     CCSD_T
    Reference wfn   =     RHF
    Brueckner       =     No
    Memory (Mbytes) =     50000.0
    Maxiter         =     50
    R_Convergence   =     1.0e-07
    E_Convergence   =     1.0e-06
    Restart         =     Yes
    DIIS            =     Yes
    AO Basis        =     NONE
    ABCD            =     NEW
    Cache Level     =     2
    Cache Type      =     LOW
    Print Level     =     1
    Num. of threads =     1
    # Amps to Print =     10
    Print MP2 Amps? =     No
    Analyze T2 Amps =     No
    Print Pair Ener =     No
    Local CC        =     No
    SCS-MP2         =     False
    SCSN-MP2        =     False
    SCS-CCSD        =     False

MP2 correlation energy -0.3920653969270640
                Solving CC Amplitude Equations
                ------------------------------
  Iter             Energy              RMS        T1Diag      D1Diag    New D1Diag    D2Diag
  ----     ---------------------    ---------   ----------  ----------  ----------   --------
     0        -0.392065396927064    0.000e+00    0.000000    0.000000    0.000000    0.116832
     1        -0.398652127781028    4.343e-02    0.006894    0.019668    0.019668    0.118810
     2        -0.404448844049776    1.660e-02    0.006627    0.018418    0.018418    0.122992
     3        -0.406073961238223    1.264e-02    0.007768    0.022226    0.022226    0.124602
     4        -0.406430994732501    6.531e-03    0.008530    0.024817    0.024817    0.125241
     5        -0.406389021227396    4.508e-03    0.009079    0.026580    0.026580    0.125468
     6        -0.406338882338225    3.751e-03    0.009645    0.028264    0.028264    0.125549
     7        -0.406353639122827    2.606e-03    0.010211    0.029901    0.029901    0.125581
     8        -0.406388890496372    1.888e-03    0.010947    0.032254    0.032254    0.125558
     9        -0.406342380465663    1.565e-03    0.011291    0.033785    0.033785    0.125501
    10        -0.406347180150613    1.106e-03    0.011551    0.035321    0.035321    0.125472
    11        -0.406369029781758    7.947e-04    0.012116    0.038387    0.038387    0.125483
    12        -0.406377457077527    5.337e-04    0.012182    0.039126    0.039126    0.125493
    13        -0.406386527044946    3.262e-04    0.012294    0.040024    0.040024    0.125519
    14        -0.406391944004040    1.935e-04    0.012378    0.040518    0.040518    0.125531
    15        -0.406392070408397    1.195e-04    0.012373    0.040477    0.040477    0.125531
    16        -0.406392737209394    6.854e-05    0.012371    0.040486    0.040486    0.125534
    17        -0.406392978688070    4.238e-05    0.012381    0.040533    0.040533    0.125534
    18        -0.406392977078096    2.331e-05    0.012387    0.040560    0.040560    0.125533
    19        -0.406392818252986    1.428e-05    0.012387    0.040551    0.040551    0.125532
    20        -0.406392770099233    9.516e-06    0.012390    0.040563    0.040563    0.125532
    21        -0.406392744428514    5.925e-06    0.012390    0.040565    0.040565    0.125532
    22        -0.406392744124569    4.544e-06    0.012391    0.040571    0.040571    0.125532
    23        -0.406392765162461    3.813e-06    0.012392    0.040578    0.040578    0.125532
    24        -0.406392784638614    3.048e-06    0.012393    0.040584    0.040584    0.125532
    25        -0.406392787213629    2.299e-06    0.012393    0.040586    0.040586    0.125532
    26        -0.406392790459770    1.656e-06    0.012393    0.040587    0.040587    0.125532
    27        -0.406392788301589    1.380e-06    0.012393    0.040587    0.040587    0.125532
    28        -0.406392785153931    1.157e-06    0.012393    0.040587    0.040587    0.125532
    29        -0.406392782654834    8.981e-07    0.012393    0.040586    0.040586    0.125532
    30        -0.406392780099180    6.499e-07    0.012393    0.040585    0.040585    0.125532
    31        -0.406392778887448    4.121e-07    0.012393    0.040585    0.040585    0.125532
    32        -0.406392778532045    2.682e-07    0.012393    0.040584    0.040584    0.125532
    33        -0.406392778474302    1.722e-07    0.012393    0.040584    0.040584    0.125532
    34        -0.406392778278278    1.262e-07    0.012393    0.040584    0.040584    0.125532
    35        -0.406392778115053    9.811e-08    0.012393    0.040584    0.040584    0.125532

    Iterations converged.


    Largest TIA Amplitudes:
              6   1         0.0354206526
              5   2        -0.0188314430
              5   3         0.0158885853
              6  13         0.0122631752
              5   5         0.0115864673
              6  23        -0.0086601849
              5  14        -0.0072774648
              8  84         0.0065736411
              6   4        -0.0060097783
              5  42         0.0059962819

    Largest TIjAb Amplitudes:
      3   3   2   2        -0.0349909800
      7   7   0   0        -0.0279106811
      3   3  59  59        -0.0274339823
      3   3   1   1        -0.0274096495
      2   2  58  58        -0.0273748673
      7   7  58  58        -0.0273686526
      7   7  59  59        -0.0273532821
      6   6  33  33        -0.0273405636
      2   2   1   1        -0.0273359401
      5   5  34  34        -0.0268801534

    SCF energy       (wfn)                    = -105.967538698822963
    Reference energy (file100)                = -105.967538698824498

    Opposite-spin MP2 correlation energy      =   -0.294815484495784
    Same-spin MP2 correlation energy          =   -0.097249912431280
    MP2 correlation energy                    =   -0.392065396927064
      * MP2 total energy                      = -106.359604095751564

    Opposite-spin CCSD correlation energy     =   -0.317207518031354
    Same-spin CCSD correlation energy         =   -0.089185260083700
    CCSD correlation energy                   =   -0.406392778115053
      * CCSD total energy                     = -106.373931476939546

            **************************
            *                        *
            *        CCTRIPLES       *
            *                        *
            **************************


    Wave function   =    CCSD_T
    Reference wfn   =      RHF

    Nuclear Rep. energy (wfn)                =   22.056068126871462
    SCF energy          (wfn)                = -105.967538698822963
    Reference energy    (file100)            = -105.967538698824498
    CCSD energy         (file100)            =   -0.406392778115053
    Total CCSD energy   (file100)            = -106.373931476939546

    Number of ijk index combinations:              165
    Memory available in words        :      6250000000
    ~Words needed per explicit thread:          780448
    Number of threads for explicit ijk threading:    1

    MKL num_threads set to 1 for explicit threading.

    (T) energy                                =   -0.009911386469255
      * CCSD(T) total energy                  = -106.383842863408802


  //>>>>>>>>>>>>>>>>>>>>>>>>>>>>>>>>>>>//
  //    CBS Results: custom function   //
  //<<<<<<<<<<<<<<<<<<<<<<<<<<<<<<<<<<<//


   ==> HF <==

   HI-zeta (4) Energy:               -105.973592187333


   ==> Helgaker 2-point correlated extrapolation for method: MP2 <==

   LO-zeta (3) Energy:               -106.359604095752
   HI-zeta (4) Energy:               -106.440882631508
   Alpha (exponent) Value:             3.000000000000
   Extrapolated Energy:              -106.500193995439

   @Extrapolated MP2/(T,Q):          -106.500193995439



   ==> Helgaker 2-point correlated extrapolation for method: HF <==

   LO-zeta (3) Energy:               -105.967538698823
   HI-zeta (4) Energy:               -105.973592187333
   Alpha (exponent) Value:             3.000000000000
   Extrapolated Energy:              -105.978009597867

   @Extrapolated HF/(T,Q):           -105.978009597867



   ==> Helgaker 2-point correlated extrapolation for method: CCSD(T) <==

   LO-zeta (2) Energy:               -106.193509234960
   HI-zeta (3) Energy:               -106.383842863409
   Alpha (exponent) Value:             3.000000000000
   Extrapolated Energy:              -106.463983338545

   @Extrapolated CCSD(T)/(D,T):      -106.463983338545



   ==> Helgaker 2-point correlated extrapolation for method: MP2 <==

   LO-zeta (2) Energy:               -106.172979606127
   HI-zeta (3) Energy:               -106.359604095752
   Alpha (exponent) Value:             3.000000000000
   Extrapolated Energy:              -106.438182828225

   @Extrapolated MP2/(D,T):          -106.438182828225


   ==> Components <==

  ---------------------------------------------------------------------------------------------------------
                          Method / Basis                      Rqd      Energy [Eh]   Variable
  ---------------------------------------------------------------------------------------------------------
                              hf / def2-qzvpd                   *    -105.97359219   HF TOTAL ENERGY
                             mp2 / def2-qzvpd                   *    -106.44088263   MP2 TOTAL ENERGY
                              hf / def2-svpd                         -105.88052319   HF TOTAL ENERGY
                             mp2 / def2-svpd                    *    -106.17297961   MP2 TOTAL ENERGY
                            ccsd / def2-svpd                         -106.18714359   CCSD TOTAL ENERGY
                         ccsd(t) / def2-svpd                    *    -106.19350923   CCSD(T) TOTAL ENERGY
                              hf / def2-tzvpd                   *    -105.96753870   HF TOTAL ENERGY
                             mp2 / def2-tzvpd                   *    -106.35960410   MP2 TOTAL ENERGY
                            ccsd / def2-tzvpd                        -106.37393148   CCSD TOTAL ENERGY
                         ccsd(t) / def2-tzvpd                   *    -106.38384286   CCSD(T) TOTAL ENERGY
  ---------------------------------------------------------------------------------------------------------

   ==> Stages <==

  ---------------------------------------------------------------------------------------------------------
      Stage               Method / Basis                       Wt      Energy [Eh]   Scheme
  ---------------------------------------------------------------------------------------------------------
        scf                   hf / def2-qzvpd                   1    -105.97359219   xtpl_highest_1
       corl                  mp2 / def2-[tq]zvpd                1    -106.50019400   corl_xtpl_helgaker_2
       corl                   hf / def2-[tq]zvpd               -1    -105.97800960   corl_xtpl_helgaker_2
     delta1              ccsd(t) / def2-[st]zvpd                1    -106.46398334   corl_xtpl_helgaker_2
     delta1                  mp2 / def2-[st]zvpd               -1    -106.43818283   corl_xtpl_helgaker_2
  ---------------------------------------------------------------------------------------------------------

   ==> CBS <==

  ---------------------------------------------------------------------------------------------------------
      Stage               Method / Basis                               Energy [Eh]   Scheme
  ---------------------------------------------------------------------------------------------------------
        scf                   hf / def2-qzvpd                        -105.97359219   xtpl_highest_1
       corl                  mp2 / def2-[tq]zvpd                       -0.52218440   corl_xtpl_helgaker_2
     delta1        ccsd(t) - mp2 / def2-[st]zvpd                       -0.02580051   corl_xtpl_helgaker_2
      total                  CBS                                     -106.52157710   
  ---------------------------------------------------------------------------------------------------------
   => Loading Basis Set <=

    Name: DEF2-SVP
    Role: ORBITAL
    Keyword: BASIS
    atoms 1   entry LA         line  1831 (ECP: line  2906) file /home/jtg2769/poltype/miniconda3/envs/p4env/share/psi4/basis/def2-svp.gbs 
    atoms 2   entry O          line   130 file /home/jtg2769/poltype/miniconda3/envs/p4env/share/psi4/basis/def2-svp.gbs 
    atoms 3-4 entry H          line    15 file /home/jtg2769/poltype/miniconda3/envs/p4env/share/psi4/basis/def2-svp.gbs 

    !!!  WARNING: ECP capability is in beta. Please check occupations closely.  !!!


    Psi4 stopped on: Monday, 28 February 2022 03:25AM
    Psi4 wall time for execution: 0:01:50.76

*** Psi4 exiting successfully. Buy a developer a beer!
