
    -----------------------------------------------------------------------
          Psi4: An Open-Source Ab Initio Electronic Structure Package
                               Psi4 1.4a2.dev78 

                         Git: Rev {master} e512d40 


    R. M. Parrish, L. A. Burns, D. G. A. Smith, A. C. Simmonett,
    A. E. DePrince III, E. G. Hohenstein, U. Bozkaya, A. Yu. Sokolov,
    R. Di Remigio, R. M. Richard, J. F. Gonthier, A. M. James,
    H. R. McAlexander, A. Kumar, M. Saitow, X. Wang, B. P. Pritchard,
    P. Verma, H. F. Schaefer III, K. Patkowski, R. A. King, E. F. Valeev,
    F. A. Evangelista, J. M. Turney, T. D. Crawford, and C. D. Sherrill,
    J. Chem. Theory Comput. 13(7) pp 3185--3197 (2017).
    (doi: 10.1021/acs.jctc.7b00174)


                         Additional Contributions by
    P. Kraus, H. Kruse, M. H. Lechner, M. C. Schieber, R. A. Shaw,
    A. Alenaizan, R. Galvelis, Z. L. Glick, S. Lehtola, and J. P. Misiewicz

    -----------------------------------------------------------------------


    Psi4 started on: Monday, 28 February 2022 03:14AM

    Process ID: 2397404
    Host:       node215.bme.utexas.edu
    PSIDATADIR: /home/jtg2769/poltype/miniconda3/envs/p4env/share/psi4
    Memory:     500.0 MiB
    Threads:    1
    
  ==> Input File <==

--------------------------------------------------------------------------
memory 50 GB
set basis def2-QZVPD
set soscf true
set fail_on_maxiter false
molecule{
	3 1
	La -0.038392 -0.277582 0.000000
	--
	0 1
	O 0.326844 2.372023 0.000000
	H 0.418155 2.961925 0.761699
	H 0.418155 2.961925 -0.761699
}

energy(cbs, corl_wfn='mp2',corl_basis='def2-[TQ]ZVPD', delta_wfn='ccsd(t)', delta_basis='def2-[DT]ZVPD')
--------------------------------------------------------------------------

  Memory set to  46.566 GiB by Python driver.

  //>>>>>>>>>>>>>>>>>>>>>>>>>>>>>>>>>>>//
  //     CBS Setup: custom function    //
  //<<<<<<<<<<<<<<<<<<<<<<<<<<<<<<<<<<<//

    Naive listing of computations required.
             hf / def2-qzvpd               for  HF TOTAL ENERGY
            mp2 / def2-tzvpd               for  MP2 TOTAL ENERGY
            mp2 / def2-qzvpd               for  MP2 TOTAL ENERGY
             hf / def2-tzvpd               for  HF TOTAL ENERGY
             hf / def2-qzvpd               for  HF TOTAL ENERGY
        ccsd(t) / def2-svpd                for  CCSD(T) TOTAL ENERGY
        ccsd(t) / def2-tzvpd               for  CCSD(T) TOTAL ENERGY
            mp2 / def2-svpd                for  MP2 TOTAL ENERGY
            mp2 / def2-tzvpd               for  MP2 TOTAL ENERGY

    Enlightened listing of computations required.
            mp2 / def2-qzvpd               for  MP2 TOTAL ENERGY
        ccsd(t) / def2-svpd                for  CCSD(T) TOTAL ENERGY
        ccsd(t) / def2-tzvpd               for  CCSD(T) TOTAL ENERGY

    Full listing of computations to be obtained (required and bonus).
             hf / def2-qzvpd               for  HF TOTAL ENERGY
            mp2 / def2-qzvpd               for  MP2 TOTAL ENERGY
             hf / def2-svpd                for  HF TOTAL ENERGY
            mp2 / def2-svpd                for  MP2 TOTAL ENERGY
           ccsd / def2-svpd                for  CCSD TOTAL ENERGY
        ccsd(t) / def2-svpd                for  CCSD(T) TOTAL ENERGY
             hf / def2-tzvpd               for  HF TOTAL ENERGY
            mp2 / def2-tzvpd               for  MP2 TOTAL ENERGY
           ccsd / def2-tzvpd               for  CCSD TOTAL ENERGY
        ccsd(t) / def2-tzvpd               for  CCSD(T) TOTAL ENERGY

  //>>>>>>>>>>>>>>>>>>>>>>>>>>>>>>>>>>>//
  // CBS Computation: MP2 / DEF2-QZVPD //
  //<<<<<<<<<<<<<<<<<<<<<<<<<<<<<<<<<<<//

    SCF Algorithm Type (re)set to DF.

*** tstart() called on node215.bme.utexas.edu
*** at Mon Feb 28 03:14:37 2022

   => Loading Basis Set <=

    Name: DEF2-QZVPD
    Role: ORBITAL
    Keyword: BASIS
    atoms 1   entry LA         line  3634 (ECP: line  5113) file /home/jtg2769/poltype/miniconda3/envs/p4env/share/psi4/basis/def2-qzvpd.gbs 
    atoms 2   entry O          line   305 file /home/jtg2769/poltype/miniconda3/envs/p4env/share/psi4/basis/def2-qzvpd.gbs 
    atoms 3-4 entry H          line    14 file /home/jtg2769/poltype/miniconda3/envs/p4env/share/psi4/basis/def2-qzvpd.gbs 

    !!!  WARNING: ECP capability is in beta. Please check occupations closely.  !!!


         ---------------------------------------------------------
                                   SCF
               by Justin Turney, Rob Parrish, Andy Simmonett
                          and Daniel G. A. Smith
                              RHF Reference
                        1 Threads,  47683 MiB Core
         ---------------------------------------------------------

  ==> Geometry <==

    Molecular point group: cs
    Full point group: Cs

    Geometry (in Angstrom), charge = 3, multiplicity = 1:

       Center              X                  Y                   Z               Mass       
    ------------   -----------------  -----------------  -----------------  -----------------
         LA          -0.043093871480    -0.311693078970     0.000000000000   138.906356300000
         O            0.322142128520     2.337911921030     0.000000000000    15.994914619570
         H            0.413453128520     2.927813921030     0.761699000000     1.007825032230
         H            0.413453128520     2.927813921030    -0.761699000000     1.007825032230

  Running in cs symmetry.

  Rotational constants: A =     14.41295  B =      0.13994  C =      0.13860 [cm^-1]
  Rotational constants: A = 432089.36864  B =   4195.36144  C =   4155.02975 [MHz]
  Nuclear repulsion =   29.973031158476811

  Charge       = 3
  Multiplicity = 1
  Electrons    = 18
  Nalpha       = 9
  Nbeta        = 9

  ==> Algorithm <==

  SCF Algorithm Type is DF.
  DIIS enabled.
  MOM disabled.
  Fractional occupation disabled.
  Guess Type is SAD.
  Energy threshold   = 1.00e-08
  Density threshold  = 1.00e-08
  Integral threshold = 0.00e+00

  ==> Primary Basis <==

  Basis Set: DEF2-QZVPD
    Blend: DEF2-QZVPD
    Number of shells: 62
    Number of basis function: 204
    Number of Cartesian functions: 249
    Spherical Harmonics?: true
    Max angular momentum: 4

  Core potential: DEF2-QZVPD
    Number of shells: 4
    Number of ECP primitives: 10
    Number of ECP core electrons: 46
    Max angular momentum: 3

   => Loading Basis Set <=

    Name: (DEF2-QZVPD AUX)
    Role: JKFIT
    Keyword: DF_BASIS_SCF
    atoms 1   entry LA         line  5333 file /home/jtg2769/poltype/miniconda3/envs/p4env/share/psi4/basis/def2-qzvp-jkfit.gbs 
    atoms 2   entry O          line   323 file /home/jtg2769/poltype/miniconda3/envs/p4env/share/psi4/basis/def2-qzvp-jkfit.gbs 
    atoms 3-4 entry H          line    23 file /home/jtg2769/poltype/miniconda3/envs/p4env/share/psi4/basis/def2-qzvp-jkfit.gbs 

  ==> Pre-Iterations <==

   -------------------------------------------------------
    Irrep   Nso     Nmo     Nalpha   Nbeta   Ndocc  Nsocc
   -------------------------------------------------------
     A'       122     122       0       0       0       0
     A"        82      82       0       0       0       0
   -------------------------------------------------------
    Total     204     204       9       9       9       0
   -------------------------------------------------------

  ==> Integral Setup <==

  DFHelper Memory: AOs need 0.118 GiB; user supplied 34.925 GiB. Using in-core AOs.

  ==> MemDFJK: Density-Fitted J/K Matrices <==

    J tasked:                   Yes
    K tasked:                   Yes
    wK tasked:                   No
    OpenMP threads:               1
    Memory [MiB]:             35762
    Algorithm:                 Core
    Schwarz Cutoff:           1E-12
    Mask sparsity (%):       0.4566
    Fitting Condition:        1E-10

   => Auxiliary Basis Set <=

  Basis Set: (DEF2-QZVPD AUX)
    Blend: DEF2-QZVP-JKFIT
    Number of shells: 82
    Number of basis function: 340
    Number of Cartesian functions: 474
    Spherical Harmonics?: true
    Max angular momentum: 6

  Minimum eigenvalue in the overlap matrix is 4.8450200339E-05.
  Using Symmetric Orthogonalization.

  SCF Guess: Superposition of Atomic Densities via on-the-fly atomic UHF.

  ==> Iterations <==

                           Total Energy        Delta E     RMS |[F,P]|

   @DF-RHF iter SAD:  -106.46024062026582   -1.06460e+02   0.00000e+00 
   @DF-RHF iter   1:  -105.95167047035409    5.08570e-01   3.24402e-03 DIIS
   @DF-RHF iter   2:  -106.02944628484059   -7.77758e-02   1.93327e-03 DIIS
   @DF-RHF iter   3:  -106.05446202713749   -2.50157e-02   2.41121e-04 SOSCF, nmicro=5
   @DF-RHF iter   4:  -106.05544465482686   -9.82628e-04   3.52227e-06 SOSCF, nmicro=5
   @DF-RHF iter   5:  -106.05544493956478   -2.84738e-07   6.68950e-08 SOSCF, nmicro=5
   @DF-RHF iter   6:  -106.05544493962128   -5.65024e-11   9.14250e-10 SOSCF, nmicro=conv
  Energy and wave function converged.


  ==> Post-Iterations <==

    Orbital Energies [Eh]
    ---------------------

    Doubly Occupied:                                                      

       1Ap   -21.142687     2Ap    -2.595262     3Ap    -1.923905  
       1App   -1.794350     4Ap    -1.793573     5Ap    -1.785218  
       2App   -1.279904     6Ap    -1.193018     7Ap    -1.088012  

    Virtual:                                                              

       8Ap    -0.603662     3App   -0.603575     4App   -0.595943  
       9Ap    -0.591199    10Ap    -0.586101    11Ap    -0.543734  
       5App   -0.449224    12Ap    -0.444769    13Ap    -0.410165  
      14Ap    -0.307074     6App   -0.300674     7App   -0.296712  
      15Ap    -0.296560    16Ap    -0.294583    17Ap    -0.292503  
      18Ap    -0.269844     8App   -0.262859    19Ap    -0.256190  
      20Ap    -0.251124     9App   -0.248833    10App   -0.246203  
      11App   -0.240027    21Ap    -0.239735    22Ap    -0.238538  
      23Ap    -0.232853    12App   -0.208958    24Ap    -0.185191  
      25Ap    -0.170467    26Ap    -0.169801    27Ap    -0.135230  
      13App   -0.127982    28Ap    -0.123229    14App   -0.120570  
      29Ap    -0.110451    15App   -0.109890    16App   -0.101510  
      30Ap    -0.101102    31Ap    -0.089253    32Ap    -0.061415  
      17App   -0.040572    18App   -0.025478    33Ap    -0.012445  
      34Ap    -0.002786    19App    0.010934    35Ap     0.030790  
      36Ap     0.058327    20App    0.068424    37Ap     0.073560  
      21App    0.092845    38Ap     0.118515    39Ap     0.132773  
      22App    0.140973    40Ap     0.143045    23App    0.155957  
      41Ap     0.158190    42Ap     0.177057    43Ap     0.181895  
      44Ap     0.184390    24App    0.184805    25App    0.185895  
      45Ap     0.194315    46Ap     0.202369    26App    0.202711  
      47Ap     0.229916    27App    0.271663    28App    0.281526  
      48Ap     0.342388    49Ap     0.383127    29App    0.396847  
      50Ap     0.423967    30App    0.425777    51Ap     0.478612  
      52Ap     0.511687    53Ap     0.522457    31App    0.554840  
      32App    0.569539    33App    0.571357    54Ap     0.573589  
      55Ap     0.579406    56Ap     0.664647    34App    0.690708  
      57Ap     0.713910    58Ap     0.817490    35App    0.826012  
      59Ap     0.843847    60Ap     0.991297    61Ap     0.993422  
      36App    1.058270    37App    1.063468    62Ap     1.072691  
      38App    1.075409    39App    1.093295    63Ap     1.101371  
      64Ap     1.103157    40App    1.126327    65Ap     1.180392  
      66Ap     1.332939    67Ap     1.338704    41App    1.354623  
      68Ap     1.536923    69Ap     1.721276    42App    1.752505  
      70Ap     1.777709    71Ap     1.843561    43App    2.006173  
      44App    2.047207    72Ap     2.183744    45App    2.186373  
      46App    2.217748    47App    2.370550    73Ap     2.381793  
      74Ap     2.445955    48App    2.503438    75Ap     2.503505  
      76Ap     2.741565    49App    2.841819    50App    3.041253  
      77Ap     3.062424    78Ap     3.297407    79Ap     3.459262  
      51App    3.659168    80Ap     3.691994    81Ap     3.709947  
      52App    3.832127    82Ap     4.017935    83Ap     4.064093  
      84Ap     4.169401    53App    4.212403    54App    4.342116  
      55App    4.609454    85Ap     4.716410    86Ap     5.176015  
      87Ap     5.222955    56App    5.330610    88Ap     5.463725  
      57App    5.719494    89Ap     5.777656    58App    5.825866  
      59App    6.205375    90Ap     6.281266    60App    6.565667  
      91Ap     6.786994    61App    7.014706    92Ap     7.071194  
      62App    7.128602    93Ap     7.192092    63App    7.202288  
      64App    7.307702    94Ap     7.379038    95Ap     7.526007  
      96Ap     7.551453    65App    7.660817    97Ap     7.697125  
      98Ap     7.718580    66App    7.761352    67App    7.815848  
      99Ap     7.978828    68App    8.135675   100Ap     8.376640  
      69App    8.428373    70App    8.589930   101Ap     8.600571  
     102Ap     8.858301    71App    8.965327   103Ap     9.761204  
     104Ap     9.828002    72App   10.192710   105Ap    10.196382  
      73App   10.636178   106Ap    10.697464    74App   10.863360  
      75App   11.074133   107Ap    11.098284   108Ap    11.295297  
     109Ap    11.300251   110Ap    11.500113   111Ap    11.528837  
      76App   11.660374   112Ap    11.732106   113Ap    11.782390  
      77App   11.787900    78App   11.850861   114Ap    12.281829  
     115Ap    12.480637    79App   12.854207    80App   13.428061  
     116Ap    13.634274   117Ap    13.774754    81App   14.019827  
     118Ap    14.455035   119Ap    16.716838    82App   16.749494  
     120Ap    32.978280   121Ap    49.148062   122Ap   256.299222  

    Final Occupation by Irrep:
             Ap   App 
    DOCC [     7,    2 ]

  @DF-RHF Final Energy:  -106.05544493962128

   => Energetics <=

    Nuclear Repulsion Energy =             29.9730311584768110
    One-Electron Energy =                -202.8650975144699373
    Two-Electron Energy =                  66.8366214163718553
    Total Energy =                       -106.0554449396212817

Computation Completed


Properties will be evaluated at   0.000000,   0.000000,   0.000000 [a0]

Properties computed using the SCF density matrix

  Nuclear Dipole Moment: [e a0]
     X:     5.5369      Y:    39.9305      Z:     0.0000

  Electronic Dipole Moment: [e a0]
     X:    -5.4945      Y:   -39.7275      Z:     0.0000

  Dipole Moment: [e a0]
     X:     0.0424      Y:     0.2030      Z:     0.0000     Total:     0.2074

  Dipole Moment: [D]
     X:     0.1077      Y:     0.5160      Z:     0.0000     Total:     0.5271


*** tstop() called on node215.bme.utexas.edu at Mon Feb 28 03:14:48 2022
Module time:
	user time   =      10.46 seconds =       0.17 minutes
	system time =       0.10 seconds =       0.00 minutes
	total time  =         11 seconds =       0.18 minutes
Total time:
	user time   =      10.46 seconds =       0.17 minutes
	system time =       0.10 seconds =       0.00 minutes
	total time  =         11 seconds =       0.18 minutes

*** tstart() called on node215.bme.utexas.edu
*** at Mon Feb 28 03:14:48 2022


  //>>>>>>>>>>>>>>>>>>>>>>>>>>>>>>>>>>>//
  //               DFMP2               //
  //<<<<<<<<<<<<<<<<<<<<<<<<<<<<<<<<<<<//

   => Loading Basis Set <=

    Name: (DEF2-QZVPD AUX)
    Role: RIFIT
    Keyword: DF_BASIS_MP2
    atoms 1   entry LA         line  5314 file /home/jtg2769/poltype/miniconda3/envs/p4env/share/psi4/basis/def2-qzvpp-ri.gbs 
    atoms 2   entry O          line   406 file /home/jtg2769/poltype/miniconda3/envs/p4env/share/psi4/basis/def2-qzvpp-ri.gbs 
    atoms 3-4 entry H          line    24 file /home/jtg2769/poltype/miniconda3/envs/p4env/share/psi4/basis/def2-qzvpp-ri.gbs 

	 --------------------------------------------------------
	                          DF-MP2                         
	      2nd-Order Density-Fitted Moller-Plesset Theory     
	              RMP2 Wavefunction,   1 Threads             
	                                                         
	        Rob Parrish, Justin Turney, Andy Simmonett,      
	           Ed Hohenstein, and C. David Sherrill          
	 --------------------------------------------------------

   => Auxiliary Basis Set <=

  Basis Set: (DEF2-QZVPD AUX)
    Blend: DEF2-QZVPP-RI
    Number of shells: 111
    Number of basis function: 505
    Number of Cartesian functions: 724
    Spherical Harmonics?: true
    Max angular momentum: 6

	 --------------------------------------------------------
	                 NBF =   204, NAUX =   505
	 --------------------------------------------------------
	   CLASS    FOCC     OCC    AOCC    AVIR     VIR    FVIR
	   PAIRS       0       9       9     195     195       0
	 --------------------------------------------------------

	-----------------------------------------------------------
	 ==================> DF-MP2 Energies <==================== 
	-----------------------------------------------------------
	 Reference Energy          =    -106.0554449396212817 [Eh]
	 Singles Energy            =      -0.0000000000000000 [Eh]
	 Same-Spin Energy          =      -0.1125859919234558 [Eh]
	 Opposite-Spin Energy      =      -0.3607302678016039 [Eh]
	 Correlation Energy        =      -0.4733162597250598 [Eh]
	 Total Energy              =    -106.5287611993463486 [Eh]
	-----------------------------------------------------------
	 ================> DF-SCS-MP2 Energies <================== 
	-----------------------------------------------------------
	 SCS Same-Spin Scale       =       0.3333333333333333 [-]
	 SCS Opposite-Spin Scale   =       1.2000000000000000 [-]
	 SCS Same-Spin Energy      =      -0.0375286639744853 [Eh]
	 SCS Opposite-Spin Energy  =      -0.4328763213619247 [Eh]
	 SCS Correlation Energy    =      -0.4704049853364100 [Eh]
	 SCS Total Energy          =    -106.5258499249576971 [Eh]
	-----------------------------------------------------------


*** tstop() called on node215.bme.utexas.edu at Mon Feb 28 03:14:49 2022
Module time:
	user time   =       1.09 seconds =       0.02 minutes
	system time =       0.05 seconds =       0.00 minutes
	total time  =          1 seconds =       0.02 minutes
Total time:
	user time   =      11.55 seconds =       0.19 minutes
	system time =       0.15 seconds =       0.00 minutes
	total time  =         12 seconds =       0.20 minutes

  //>>>>>>>>>>>>>>>>>>>>>>>>>>>>>>>>>>>>>>//
  // CBS Computation: CCSD(T) / DEF2-SVPD //
  //<<<<<<<<<<<<<<<<<<<<<<<<<<<<<<<<<<<<<<//


*** tstart() called on node215.bme.utexas.edu
*** at Mon Feb 28 03:14:49 2022

   => Loading Basis Set <=

    Name: DEF2-SVPD
    Role: ORBITAL
    Keyword: BASIS
    atoms 1   entry LA         line  2014 (ECP: line  3140) file /home/jtg2769/poltype/miniconda3/envs/p4env/share/psi4/basis/def2-svpd.gbs 
    atoms 2   entry O          line   149 file /home/jtg2769/poltype/miniconda3/envs/p4env/share/psi4/basis/def2-svpd.gbs 
    atoms 3-4 entry H          line    14 file /home/jtg2769/poltype/miniconda3/envs/p4env/share/psi4/basis/def2-svpd.gbs 

    !!!  WARNING: ECP capability is in beta. Please check occupations closely.  !!!


         ---------------------------------------------------------
                                   SCF
               by Justin Turney, Rob Parrish, Andy Simmonett
                          and Daniel G. A. Smith
                              RHF Reference
                        1 Threads,  47683 MiB Core
         ---------------------------------------------------------

  ==> Geometry <==

    Molecular point group: cs
    Full point group: Cs

    Geometry (in Angstrom), charge = 3, multiplicity = 1:

       Center              X                  Y                   Z               Mass       
    ------------   -----------------  -----------------  -----------------  -----------------
         LA          -0.043093871480    -0.311693078970     0.000000000000   138.906356300000
         O            0.322142128520     2.337911921030     0.000000000000    15.994914619570
         H            0.413453128520     2.927813921030     0.761699000000     1.007825032230
         H            0.413453128520     2.927813921030    -0.761699000000     1.007825032230

  Running in cs symmetry.

  Rotational constants: A =     14.41295  B =      0.13994  C =      0.13860 [cm^-1]
  Rotational constants: A = 432089.36864  B =   4195.36144  C =   4155.02975 [MHz]
  Nuclear repulsion =   29.973031158476811

  Charge       = 3
  Multiplicity = 1
  Electrons    = 18
  Nalpha       = 9
  Nbeta        = 9

  ==> Algorithm <==

  SCF Algorithm Type is PK.
  DIIS enabled.
  MOM disabled.
  Fractional occupation disabled.
  Guess Type is SAD.
  Energy threshold   = 1.00e-08
  Density threshold  = 1.00e-08
  Integral threshold = 0.00e+00

  ==> Primary Basis <==

  Basis Set: DEF2-SVPD
    Blend: DEF2-SVPD
    Number of shells: 30
    Number of basis function: 74
    Number of Cartesian functions: 81
    Spherical Harmonics?: true
    Max angular momentum: 3

  Core potential: DEF2-SVPD
    Number of shells: 4
    Number of ECP primitives: 10
    Number of ECP core electrons: 46
    Max angular momentum: 3

  ==> Pre-Iterations <==

   -------------------------------------------------------
    Irrep   Nso     Nmo     Nalpha   Nbeta   Ndocc  Nsocc
   -------------------------------------------------------
     A'        48      48       0       0       0       0
     A"        26      26       0       0       0       0
   -------------------------------------------------------
    Total      74      74       9       9       9       0
   -------------------------------------------------------

  ==> Integral Setup <==

  Using in-core PK algorithm.
   Calculation information:
      Number of atoms:                   4
      Number of AO shells:              30
      Number of primitives:             47
      Number of atomic orbitals:        81
      Number of basis functions:        74

      Integral cutoff                 1.00e-12
      Number of threads:                 1

  Performing in-core PK
  Using 7703400 doubles for integral storage.
  We computed 107025 shell quartets total.
  Whereas there are 108345 unique shell quartets.

  ==> DiskJK: Disk-Based J/K Matrices <==

    J tasked:                  Yes
    K tasked:                  Yes
    wK tasked:                  No
    Memory [MiB]:            35762
    Schwarz Cutoff:          1E-12

    OpenMP threads:              1

  Minimum eigenvalue in the overlap matrix is 1.0316855714E-03.
  Using Symmetric Orthogonalization.

  SCF Guess: Superposition of Atomic Densities via on-the-fly atomic UHF.


 WARNING: Atomic UHF is not converging! Try casting from a smaller basis or call Rob at CCMST.
  ==> Iterations <==

                        Total Energy        Delta E     RMS |[F,P]|

   @RHF iter SAD:  -106.58118066383848   -1.06581e+02   0.00000e+00 
   @RHF iter   1:  -105.89426768411386    6.86913e-01   6.89817e-03 DIIS
   @RHF iter   2:  -105.94508214863399   -5.08145e-02   3.94464e-03 DIIS
   @RHF iter   3:  -105.96171462928763   -1.66325e-02   5.53531e-04 SOSCF, nmicro=5
   @RHF iter   4:  -105.96245616692200   -7.41538e-04   7.13503e-06 SOSCF, nmicro=5
   @RHF iter   5:  -105.96245634897741   -1.82055e-07   1.05826e-07 SOSCF, nmicro=5
   @RHF iter   6:  -105.96245634900025   -2.28368e-11   1.23029e-09 SOSCF, nmicro=conv
  Energy and wave function converged.


  ==> Post-Iterations <==

    Orbital Energies [Eh]
    ---------------------

    Doubly Occupied:                                                      

       1Ap   -21.149376     2Ap    -2.597652     3Ap    -1.908000  
       1App   -1.796442     4Ap    -1.795631     5Ap    -1.786454  
       2App   -1.283725     6Ap    -1.196400     7Ap    -1.090170  

    Virtual:                                                              

       8Ap    -0.604961     3App   -0.604876     4App   -0.597085  
       9Ap    -0.592249    10Ap    -0.586785    11Ap    -0.543041  
       5App   -0.445589    12Ap    -0.440988    13Ap    -0.406082  
      14Ap    -0.304042     6App   -0.291182    15Ap    -0.290927  
       7App   -0.287953    16Ap    -0.287177    17Ap    -0.279703  
       8App   -0.257112    18Ap    -0.254382    19Ap    -0.251096  
       9App   -0.228741    20Ap    -0.223172    21Ap    -0.203062  
      10App   -0.167684    22Ap    -0.152836    11App   -0.112515  
      23Ap    -0.102196    24Ap    -0.054594    12App   -0.033286  
      25Ap    -0.031596    26Ap    -0.031183    13App   -0.017736  
      27Ap     0.010430    14App    0.030177    15App    0.049520  
      28Ap     0.057298    29Ap     0.067476    16App    0.094685  
      30Ap     0.138577    17App    0.167297    31Ap     0.180333  
      32Ap     0.185028    33Ap     0.240675    18App    0.249103  
      19App    0.262649    34Ap     0.300847    35Ap     0.305919  
      36Ap     0.497154    37Ap     0.669537    20App    0.832222  
      38Ap     0.946231    39Ap     1.161603    21App    1.318103  
      22App    1.403047    40Ap     1.456340    41Ap     1.600208  
      23App    1.700790    42Ap     1.834059    24App    2.058262  
      43Ap     2.194321    44Ap     2.798423    25App    2.850430  
      45Ap     3.011954    46Ap     3.477553    26App    3.868450  
      47Ap    10.971893    48Ap    32.935686  

    Final Occupation by Irrep:
             Ap   App 
    DOCC [     7,    2 ]

  @RHF Final Energy:  -105.96245634900025

   => Energetics <=

    Nuclear Repulsion Energy =             29.9730311584768110
    One-Electron Energy =                -202.6632738051367824
    Two-Electron Energy =                  66.7277862976597333
    Total Energy =                       -105.9624563490002487

Computation Completed


Properties will be evaluated at   0.000000,   0.000000,   0.000000 [a0]

Properties computed using the SCF density matrix

  Nuclear Dipole Moment: [e a0]
     X:     5.5369      Y:    39.9305      Z:     0.0000

  Electronic Dipole Moment: [e a0]
     X:    -5.4950      Y:   -39.7328      Z:     0.0000

  Dipole Moment: [e a0]
     X:     0.0419      Y:     0.1977      Z:     0.0000     Total:     0.2021

  Dipole Moment: [D]
     X:     0.1065      Y:     0.5025      Z:     0.0000     Total:     0.5137


*** tstop() called on node215.bme.utexas.edu at Mon Feb 28 03:14:51 2022
Module time:
	user time   =       2.55 seconds =       0.04 minutes
	system time =       0.01 seconds =       0.00 minutes
	total time  =          2 seconds =       0.03 minutes
Total time:
	user time   =      14.11 seconds =       0.24 minutes
	system time =       0.16 seconds =       0.00 minutes
	total time  =         14 seconds =       0.23 minutes
 MINTS: Wrapper to libmints.
   by Justin Turney

   Calculation information:
      Number of threads:                 1
      Number of atoms:                   4
      Number of AO shells:              30
      Number of SO shells:              26
      Number of primitives:             47
      Number of atomic orbitals:        81
      Number of basis functions:        74

      Number of irreps:                  2
      Integral cutoff                 0.00e+00
      Number of functions per irrep: [  48   26 ]

 OEINTS: Overlap, kinetic, potential, dipole, and quadrupole integrals
         stored in file 35.

      Computing two-electron integrals...done
      Computed 1873711 non-zero two-electron integrals.
        Stored in file 33.


*** tstart() called on node215.bme.utexas.edu
*** at Mon Feb 28 03:14:52 2022


	Wfn Parameters:
	--------------------
	Wavefunction         = CCSD_T
	Number of irreps     = 2
	Number of MOs        = 74
	Number of active MOs = 74
	AO-Basis             = NONE
	Semicanonical        = false
	Reference            = RHF
	Print Level          = 1

	IRREP	# MOs	# FZDC	# DOCC	# SOCC	# VIRT	# FZVR
	-----	-----	------	------	------	------	------
	 Ap	   48	    0	    7	    0	    41	    0
	 App	   26	    0	    2	    0	    24	    0
	Transforming integrals...
	IWL integrals will be deleted.
	(OO|OO)...
	Presorting SO-basis two-electron integrals.
	Sorting File: SO Ints (nn|nn) nbuckets = 1
	Transforming the one-electron integrals and constructing Fock matrices
	Starting first half-transformation.
	Sorting half-transformed integrals.
	First half integral transformation complete.
	Starting second half-transformation.
	Two-electron integral transformation complete.
	(OO|OV)...
	Starting second half-transformation.
	Two-electron integral transformation complete.
	(OO|VV)...
	Starting second half-transformation.
	Two-electron integral transformation complete.
	(OV|OO)...
	Starting first half-transformation.
	Sorting half-transformed integrals.
	First half integral transformation complete.
	Starting second half-transformation.
	Two-electron integral transformation complete.
	(OV|OV)...
	Starting second half-transformation.
	Two-electron integral transformation complete.
	(OV|VV)...
	Starting second half-transformation.
	Two-electron integral transformation complete.
	(VV|OO)...
	Starting first half-transformation.
	Sorting half-transformed integrals.
	First half integral transformation complete.
	Starting second half-transformation.
	Two-electron integral transformation complete.
	(VV|OV)...
	Starting second half-transformation.
	Two-electron integral transformation complete.
	(VV|VV)...
	Starting second half-transformation.
	Two-electron integral transformation complete.
	Frozen core energy     =      0.00000000000000

	Size of irrep 0 of <ab|cd> integrals:      5.094 (MW) /     40.752 (MB)
	Size of irrep 1 of <ab|cd> integrals:      3.873 (MW) /     30.984 (MB)
	Total:                                     8.967 (MW) /     71.737 (MB)

	Size of irrep 0 of <ia|bc> integrals:      0.756 (MW) /      6.049 (MB)
	Size of irrep 1 of <ia|bc> integrals:      0.492 (MW) /      3.936 (MB)
	Total:                                     1.248 (MW) /      9.985 (MB)

	Size of irrep 0 of tijab amplitudes:       0.120 (MW) /      0.957 (MB)
	Size of irrep 1 of tijab amplitudes:       0.055 (MW) /      0.441 (MB)
	Total:                                     0.175 (MW) /      1.398 (MB)

	Nuclear Rep. energy          =     29.97303115847681
	SCF energy                   =   -105.96245634900025
	One-electron energy          =   -202.66327388054472
	Two-electron energy          =     66.72778637306853
	Reference energy             =   -105.96245634899937

*** tstop() called on node215.bme.utexas.edu at Mon Feb 28 03:14:55 2022
Module time:
	user time   =       0.82 seconds =       0.01 minutes
	system time =       0.32 seconds =       0.01 minutes
	total time  =          3 seconds =       0.05 minutes
Total time:
	user time   =      15.78 seconds =       0.26 minutes
	system time =       0.50 seconds =       0.01 minutes
	total time  =         18 seconds =       0.30 minutes
            **************************
            *                        *
            *        CCENERGY        *
            *                        *
            **************************

    Nuclear Rep. energy (wfn)     =   29.973031158476811
    SCF energy          (wfn)     = -105.962456349000249
    Reference energy    (file100) = -105.962456348999368

    Input parameters:
    -----------------
    Wave function   =     CCSD_T
    Reference wfn   =     RHF
    Brueckner       =     No
    Memory (Mbytes) =     50000.0
    Maxiter         =     50
    R_Convergence   =     1.0e-07
    E_Convergence   =     1.0e-06
    Restart         =     Yes
    DIIS            =     Yes
    AO Basis        =     NONE
    ABCD            =     NEW
    Cache Level     =     2
    Cache Type      =     LOW
    Print Level     =     1
    Num. of threads =     1
    # Amps to Print =     10
    Print MP2 Amps? =     No
    Analyze T2 Amps =     No
    Print Pair Ener =     No
    Local CC        =     No
    SCS-MP2         =     False
    SCSN-MP2        =     False
    SCS-CCSD        =     False

MP2 correlation energy -0.3015123467225431
                Solving CC Amplitude Equations
                ------------------------------
  Iter             Energy              RMS        T1Diag      D1Diag    New D1Diag    D2Diag
  ----     ---------------------    ---------   ----------  ----------  ----------   --------
     0        -0.301512346722543    0.000e+00    0.000000    0.000000    0.000000    0.113696
     1        -0.307596473594323    4.769e-02    0.008659    0.026495    0.026495    0.115549
     2        -0.313021042685123    1.707e-02    0.008562    0.025861    0.025861    0.120516
     3        -0.314918642661270    9.469e-03    0.010329    0.032645    0.032645    0.122497
     4        -0.315004295260688    3.219e-03    0.011031    0.035578    0.035578    0.122998
     5        -0.314951924347493    1.784e-03    0.011403    0.037480    0.037480    0.123130
     6        -0.314967053520951    7.640e-04    0.011603    0.038532    0.038532    0.123128
     7        -0.314966701265395    2.768e-04    0.011659    0.038881    0.038881    0.123089
     8        -0.314960607813484    9.614e-05    0.011666    0.038956    0.038956    0.123069
     9        -0.314961354397959    3.225e-05    0.011668    0.038981    0.038981    0.123068
    10        -0.314961291559851    1.362e-05    0.011668    0.038987    0.038987    0.123068
    11        -0.314961072068858    4.482e-06    0.011668    0.038986    0.038986    0.123067
    12        -0.314961015969544    1.524e-06    0.011668    0.038987    0.038987    0.123067
    13        -0.314960990369162    6.653e-07    0.011668    0.038987    0.038987    0.123067
    14        -0.314960978579339    1.810e-07    0.011668    0.038987    0.038987    0.123067
    15        -0.314960977544310    8.578e-08    0.011668    0.038987    0.038987    0.123067

    Iterations converged.


    Largest TIA Amplitudes:
              6   1        -0.0336881925
              5   3         0.0173641780
              6  13         0.0133922664
              6   4        -0.0106049856
              5   2        -0.0086423122
              5   5         0.0070590950
              6  20        -0.0068161141
              8  62        -0.0062890867
              2   5         0.0058643908
              6   9        -0.0056162276

    Largest TIjAb Amplitudes:
      6   6  30  30        -0.0328069520
      7   7   0   0        -0.0279377825
      3   3  41  41        -0.0269639667
      7   7  41  41        -0.0269034492
      7   7  42  42        -0.0266681812
      3   3   1   1        -0.0262592063
      4   4  42  42        -0.0262386389
      4   4   1   1        -0.0258492711
      3   3   0   0        -0.0257970171
      4   4   2   2        -0.0213248635

    SCF energy       (wfn)                    = -105.962456349000249
    Reference energy (file100)                = -105.962456348999368

    Opposite-spin MP2 correlation energy      =   -0.221821370098465
    Same-spin MP2 correlation energy          =   -0.079690976624078
    MP2 correlation energy                    =   -0.301512346722543
      * MP2 total energy                      = -106.263968695721914

    Opposite-spin CCSD correlation energy     =   -0.241563965165719
    Same-spin CCSD correlation energy         =   -0.073397012378592
    CCSD correlation energy                   =   -0.314960977544310
      * CCSD total energy                     = -106.277417326543684

            **************************
            *                        *
            *        CCTRIPLES       *
            *                        *
            **************************


    Wave function   =    CCSD_T
    Reference wfn   =      RHF

    Nuclear Rep. energy (wfn)                =   29.973031158476811
    SCF energy          (wfn)                = -105.962456349000249
    Reference energy    (file100)            = -105.962456348999368
    CCSD energy         (file100)            =   -0.314960977544310
    Total CCSD energy   (file100)            = -106.277417326543684

    Number of ijk index combinations:              165
    Memory available in words        :      6250000000
    ~Words needed per explicit thread:          275684
    Number of threads for explicit ijk threading:    1

    MKL num_threads set to 1 for explicit threading.

    (T) energy                                =   -0.007003869454549
      * CCSD(T) total energy                  = -106.284421195998220


  //>>>>>>>>>>>>>>>>>>>>>>>>>>>>>>>>>>>>>>>//
  // CBS Computation: CCSD(T) / DEF2-TZVPD //
  //<<<<<<<<<<<<<<<<<<<<<<<<<<<<<<<<<<<<<<<//


*** tstart() called on node215.bme.utexas.edu
*** at Mon Feb 28 03:15:09 2022

   => Loading Basis Set <=

    Name: DEF2-TZVPD
    Role: ORBITAL
    Keyword: BASIS
    atoms 1   entry LA         line  2525 (ECP: line  3764) file /home/jtg2769/poltype/miniconda3/envs/p4env/share/psi4/basis/def2-tzvpd.gbs 
    atoms 2   entry O          line   208 file /home/jtg2769/poltype/miniconda3/envs/p4env/share/psi4/basis/def2-tzvpd.gbs 
    atoms 3-4 entry H          line    14 file /home/jtg2769/poltype/miniconda3/envs/p4env/share/psi4/basis/def2-tzvpd.gbs 

    !!!  WARNING: ECP capability is in beta. Please check occupations closely.  !!!


         ---------------------------------------------------------
                                   SCF
               by Justin Turney, Rob Parrish, Andy Simmonett
                          and Daniel G. A. Smith
                              RHF Reference
                        1 Threads,  47683 MiB Core
         ---------------------------------------------------------

  ==> Geometry <==

    Molecular point group: cs
    Full point group: Cs

    Geometry (in Angstrom), charge = 3, multiplicity = 1:

       Center              X                  Y                   Z               Mass       
    ------------   -----------------  -----------------  -----------------  -----------------
         LA          -0.043093871480    -0.311693078970     0.000000000000   138.906356300000
         O            0.322142128520     2.337911921030     0.000000000000    15.994914619570
         H            0.413453128520     2.927813921030     0.761699000000     1.007825032230
         H            0.413453128520     2.927813921030    -0.761699000000     1.007825032230

  Running in cs symmetry.

  Rotational constants: A =     14.41295  B =      0.13994  C =      0.13860 [cm^-1]
  Rotational constants: A = 432089.36864  B =   4195.36144  C =   4155.02975 [MHz]
  Nuclear repulsion =   29.973031158476811

  Charge       = 3
  Multiplicity = 1
  Electrons    = 18
  Nalpha       = 9
  Nbeta        = 9

  ==> Algorithm <==

  SCF Algorithm Type is PK.
  DIIS enabled.
  MOM disabled.
  Fractional occupation disabled.
  Guess Type is SAD.
  Energy threshold   = 1.00e-08
  Density threshold  = 1.00e-08
  Integral threshold = 0.00e+00

  ==> Primary Basis <==

  Basis Set: DEF2-TZVPD
    Blend: DEF2-TZVPD
    Number of shells: 39
    Number of basis function: 101
    Number of Cartesian functions: 113
    Spherical Harmonics?: true
    Max angular momentum: 3

  Core potential: DEF2-TZVPD
    Number of shells: 4
    Number of ECP primitives: 10
    Number of ECP core electrons: 46
    Max angular momentum: 3

  ==> Pre-Iterations <==

   -------------------------------------------------------
    Irrep   Nso     Nmo     Nalpha   Nbeta   Ndocc  Nsocc
   -------------------------------------------------------
     A'        65      65       0       0       0       0
     A"        36      36       0       0       0       0
   -------------------------------------------------------
    Total     101     101       9       9       9       0
   -------------------------------------------------------

  ==> Integral Setup <==

  Using in-core PK algorithm.
   Calculation information:
      Number of atoms:                   4
      Number of AO shells:              39
      Number of primitives:             58
      Number of atomic orbitals:       113
      Number of basis functions:       101

      Integral cutoff                 1.00e-12
      Number of threads:                 1

  Performing in-core PK
  Using 26537952 doubles for integral storage.
  We computed 295843 shell quartets total.
  Whereas there are 304590 unique shell quartets.

  ==> DiskJK: Disk-Based J/K Matrices <==

    J tasked:                  Yes
    K tasked:                  Yes
    wK tasked:                  No
    Memory [MiB]:            35762
    Schwarz Cutoff:          1E-12

    OpenMP threads:              1

  Minimum eigenvalue in the overlap matrix is 4.9962193775E-04.
  Using Symmetric Orthogonalization.

  SCF Guess: Superposition of Atomic Densities via on-the-fly atomic UHF.

  ==> Iterations <==

                        Total Energy        Delta E     RMS |[F,P]|

   @RHF iter SAD:  -106.63389951911178   -1.06634e+02   0.00000e+00 
   @RHF iter   1:  -105.97485613967800    6.59043e-01   5.45209e-03 DIIS
   @RHF iter   2:  -106.02901941352708   -5.41633e-02   3.26407e-03 DIIS
   @RHF iter   3:  -106.04759380304681   -1.85744e-02   4.05879e-04 SOSCF, nmicro=5
   @RHF iter   4:  -106.04832100650555   -7.27203e-04   5.00118e-06 SOSCF, nmicro=5
   @RHF iter   5:  -106.04832115905964   -1.52554e-07   9.81110e-08 SOSCF, nmicro=5
   @RHF iter   6:  -106.04832115909031   -3.06670e-11   1.28499e-09 SOSCF, nmicro=conv
  Energy and wave function converged.


  ==> Post-Iterations <==

    Orbital Energies [Eh]
    ---------------------

    Doubly Occupied:                                                      

       1Ap   -21.144473     2Ap    -2.596107     3Ap    -1.923943  
       1App   -1.795294     4Ap    -1.794441     5Ap    -1.786010  
       2App   -1.279804     6Ap    -1.193068     7Ap    -1.087549  

    Virtual:                                                              

       8Ap    -0.604285     3App   -0.604191     4App   -0.596603  
       9Ap    -0.591721    10Ap    -0.586464    11Ap    -0.543890  
       5App   -0.444142    12Ap    -0.439392    13Ap    -0.406995  
      14Ap    -0.305011     6App   -0.294886    15Ap    -0.292159  
       7App   -0.288331    16Ap    -0.287638    17Ap    -0.282863  
      18Ap    -0.259329     8App   -0.257481    19Ap    -0.251638  
       9App   -0.234623    20Ap    -0.229195    21Ap    -0.219523  
      10App   -0.179467    22Ap    -0.176517    11App   -0.146428  
      23Ap    -0.143192    24Ap    -0.079100    25Ap    -0.073161  
      12App   -0.069480    26Ap    -0.054427    27Ap    -0.038523  
      13App   -0.035843    14App   -0.029619    15App   -0.029324  
      28Ap    -0.026583    29Ap    -0.018408    30Ap    -0.014219  
      31Ap     0.021711    16App    0.022710    17App    0.028909  
      32Ap     0.076212    18App    0.137440    19App    0.139226  
      33Ap     0.142120    34Ap     0.162870    35Ap     0.185849  
      20App    0.203943    36Ap     0.269565    37Ap     0.280156  
      21App    0.292307    38Ap     0.308356    39Ap     0.348900  
      40Ap     0.388775    41Ap     0.414674    22App    0.505734  
      23App    0.589261    42Ap     0.677423    43Ap     0.787784  
      24App    1.228214    44Ap     1.327924    45Ap     1.367570  
      25App    1.473925    46Ap     1.527336    26App    1.586342  
      47Ap     1.822850    27App    1.873856    48Ap     2.092975  
      49Ap     2.248515    28App    2.392332    29App    2.598756  
      50Ap     2.659329    51Ap     2.674499    52Ap     2.941054  
      53Ap     3.638704    30App    3.819886    54Ap     4.960424  
      55Ap     5.124476    56Ap     5.274344    31App    5.325114  
      32App    5.339308    33App    5.977651    57Ap     6.218415  
      58Ap     6.394424    34App    6.444229    59Ap     6.511667  
      60Ap     6.843604    35App    6.988968    61Ap    11.049667  
      62Ap    11.137720    36App   11.209897    63Ap    11.879619  
      64Ap    32.962341    65Ap    44.683011  

    Final Occupation by Irrep:
             Ap   App 
    DOCC [     7,    2 ]

  @RHF Final Energy:  -106.04832115909031

   => Energetics <=

    Nuclear Repulsion Energy =             29.9730311584768110
    One-Electron Energy =                -202.8413253730462031
    Two-Electron Energy =                  66.8199730554790960
    Total Energy =                       -106.0483211590903068

Computation Completed


Properties will be evaluated at   0.000000,   0.000000,   0.000000 [a0]

Properties computed using the SCF density matrix

  Nuclear Dipole Moment: [e a0]
     X:     5.5369      Y:    39.9305      Z:     0.0000

  Electronic Dipole Moment: [e a0]
     X:    -5.4958      Y:   -39.7357      Z:     0.0000

  Dipole Moment: [e a0]
     X:     0.0411      Y:     0.1948      Z:     0.0000     Total:     0.1991

  Dipole Moment: [D]
     X:     0.1046      Y:     0.4951      Z:     0.0000     Total:     0.5061


*** tstop() called on node215.bme.utexas.edu at Mon Feb 28 03:15:15 2022
Module time:
	user time   =       5.42 seconds =       0.09 minutes
	system time =       0.07 seconds =       0.00 minutes
	total time  =          6 seconds =       0.10 minutes
Total time:
	user time   =      24.69 seconds =       0.41 minutes
	system time =       1.81 seconds =       0.03 minutes
	total time  =         38 seconds =       0.63 minutes
 MINTS: Wrapper to libmints.
   by Justin Turney

   Calculation information:
      Number of threads:                 1
      Number of atoms:                   4
      Number of AO shells:              39
      Number of SO shells:              34
      Number of primitives:             58
      Number of atomic orbitals:       113
      Number of basis functions:       101

      Number of irreps:                  2
      Integral cutoff                 0.00e+00
      Number of functions per irrep: [  65   36 ]

 OEINTS: Overlap, kinetic, potential, dipole, and quadrupole integrals
         stored in file 35.

      Computing two-electron integrals...done
      Computed 6442001 non-zero two-electron integrals.
        Stored in file 33.


*** tstart() called on node215.bme.utexas.edu
*** at Mon Feb 28 03:15:17 2022


	Wfn Parameters:
	--------------------
	Wavefunction         = CCSD_T
	Number of irreps     = 2
	Number of MOs        = 101
	Number of active MOs = 101
	AO-Basis             = NONE
	Semicanonical        = false
	Reference            = RHF
	Print Level          = 1

	IRREP	# MOs	# FZDC	# DOCC	# SOCC	# VIRT	# FZVR
	-----	-----	------	------	------	------	------
	 Ap	   65	    0	    7	    0	    58	    0
	 App	   36	    0	    2	    0	    34	    0
	Transforming integrals...
	IWL integrals will be deleted.
	(OO|OO)...
	Presorting SO-basis two-electron integrals.
	Sorting File: SO Ints (nn|nn) nbuckets = 1
	Transforming the one-electron integrals and constructing Fock matrices
	Starting first half-transformation.
	Sorting half-transformed integrals.
	First half integral transformation complete.
	Starting second half-transformation.
	Two-electron integral transformation complete.
	(OO|OV)...
	Starting second half-transformation.
	Two-electron integral transformation complete.
	(OO|VV)...
	Starting second half-transformation.
	Two-electron integral transformation complete.
	(OV|OO)...
	Starting first half-transformation.
	Sorting half-transformed integrals.
	First half integral transformation complete.
	Starting second half-transformation.
	Two-electron integral transformation complete.
	(OV|OV)...
	Starting second half-transformation.
	Two-electron integral transformation complete.
	(OV|VV)...
	Starting second half-transformation.
	Two-electron integral transformation complete.
	(VV|OO)...
	Starting first half-transformation.
	Sorting half-transformed integrals.
	First half integral transformation complete.
	Starting second half-transformation.
	Two-electron integral transformation complete.
	(VV|OV)...
	Starting second half-transformation.
	Two-electron integral transformation complete.
	(VV|VV)...
	Starting second half-transformation.
	Two-electron integral transformation complete.
	Frozen core energy     =      0.00000000000000

	Size of irrep 0 of <ab|cd> integrals:     20.430 (MW) /    163.443 (MB)
	Size of irrep 1 of <ab|cd> integrals:     15.555 (MW) /    124.441 (MB)
	Total:                                    35.986 (MW) /    287.884 (MB)

	Size of irrep 0 of <ia|bc> integrals:      2.142 (MW) /     17.140 (MB)
	Size of irrep 1 of <ia|bc> integrals:      1.396 (MW) /     11.169 (MB)
	Total:                                     3.539 (MW) /     28.309 (MB)

	Size of irrep 0 of tijab amplitudes:       0.240 (MW) /      1.916 (MB)
	Size of irrep 1 of tijab amplitudes:       0.110 (MW) /      0.883 (MB)
	Total:                                     0.350 (MW) /      2.800 (MB)

	Nuclear Rep. energy          =     29.97303115847681
	SCF energy                   =   -106.04832115909031
	One-electron energy          =   -202.84132558036688
	Two-electron energy          =     66.81997326279902
	Reference energy             =   -106.04832115909103

*** tstop() called on node215.bme.utexas.edu at Mon Feb 28 03:15:22 2022
Module time:
	user time   =       2.62 seconds =       0.04 minutes
	system time =       1.38 seconds =       0.02 minutes
	total time  =          5 seconds =       0.08 minutes
Total time:
	user time   =      28.98 seconds =       0.48 minutes
	system time =       3.28 seconds =       0.05 minutes
	total time  =         45 seconds =       0.75 minutes
            **************************
            *                        *
            *        CCENERGY        *
            *                        *
            **************************

    Nuclear Rep. energy (wfn)     =   29.973031158476811
    SCF energy          (wfn)     = -106.048321159090307
    Reference energy    (file100) = -106.048321159091032

    Input parameters:
    -----------------
    Wave function   =     CCSD_T
    Reference wfn   =     RHF
    Brueckner       =     No
    Memory (Mbytes) =     50000.0
    Maxiter         =     50
    R_Convergence   =     1.0e-07
    E_Convergence   =     1.0e-06
    Restart         =     Yes
    DIIS            =     Yes
    AO Basis        =     NONE
    ABCD            =     NEW
    Cache Level     =     2
    Cache Type      =     LOW
    Print Level     =     1
    Num. of threads =     1
    # Amps to Print =     10
    Print MP2 Amps? =     No
    Analyze T2 Amps =     No
    Print Pair Ener =     No
    Local CC        =     No
    SCS-MP2         =     False
    SCSN-MP2        =     False
    SCS-CCSD        =     False

MP2 correlation energy -0.3978748196041711
                Solving CC Amplitude Equations
                ------------------------------
  Iter             Energy              RMS        T1Diag      D1Diag    New D1Diag    D2Diag
  ----     ---------------------    ---------   ----------  ----------  ----------   --------
     0        -0.397874819604171    0.000e+00    0.000000    0.000000    0.000000    0.118322
     1        -0.403059598505518    4.520e-02    0.007445    0.023123    0.023123    0.118669
     2        -0.409099807606697    1.669e-02    0.007108    0.021818    0.021818    0.123415
     3        -0.411056175864349    8.667e-03    0.008572    0.027588    0.027588    0.125151
     4        -0.411039167528760    2.879e-03    0.009174    0.030037    0.030037    0.125576
     5        -0.410986943586843    1.639e-03    0.009517    0.031715    0.031715    0.125713
     6        -0.411014159882455    7.585e-04    0.009731    0.032782    0.032782    0.125735
     7        -0.411012619868323    2.552e-04    0.009784    0.033104    0.033104    0.125696
     8        -0.411005465102899    9.661e-05    0.009792    0.033176    0.033176    0.125678
     9        -0.411006185050945    3.111e-05    0.009794    0.033203    0.033203    0.125676
    10        -0.411006150235098    1.237e-05    0.009794    0.033209    0.033209    0.125676
    11        -0.411005764704266    4.787e-06    0.009794    0.033209    0.033209    0.125676
    12        -0.411005744771010    1.543e-06    0.009794    0.033210    0.033210    0.125676
    13        -0.411005722098363    6.252e-07    0.009794    0.033209    0.033209    0.125676
    14        -0.411005707124677    1.727e-07    0.009794    0.033209    0.033209    0.125675
    15        -0.411005706063027    8.081e-08    0.009794    0.033209    0.033209    0.125675

    Iterations converged.


    Largest TIA Amplitudes:
              6   1        -0.0290999036
              5   3         0.0144277452
              6   4        -0.0091412678
              6  13        -0.0078436947
              5   2        -0.0065941509
              5   5         0.0062805746
              8  84         0.0061154780
              6  43         0.0056937349
              6  21        -0.0050273057
              5  42        -0.0048680106

    Largest TIjAb Amplitudes:
      7   7   0   0        -0.0278179862
      3   3  58  58        -0.0268131203
      7   7  58  58        -0.0267454304
      7   7  59  59        -0.0264451232
      3   3   1   1        -0.0262546694
      4   4  59  59        -0.0261606916
      4   4   1   1        -0.0259099338
      3   3   0   0        -0.0255939512
      6   6  32  32        -0.0228298053
      4   4   2   2        -0.0212059822

    SCF energy       (wfn)                    = -106.048321159090307
    Reference energy (file100)                = -106.048321159091032

    Opposite-spin MP2 correlation energy      =   -0.297955163995589
    Same-spin MP2 correlation energy          =   -0.099919655608582
    MP2 correlation energy                    =   -0.397874819604171
      * MP2 total energy                      = -106.446195978695201

    Opposite-spin CCSD correlation energy     =   -0.319439697856108
    Same-spin CCSD correlation energy         =   -0.091566008206919
    CCSD correlation energy                   =   -0.411005706063027
      * CCSD total energy                     = -106.459326865154054

            **************************
            *                        *
            *        CCTRIPLES       *
            *                        *
            **************************


    Wave function   =    CCSD_T
    Reference wfn   =      RHF

    Nuclear Rep. energy (wfn)                =   29.973031158476811
    SCF energy          (wfn)                = -106.048321159090307
    Reference energy    (file100)            = -106.048321159091032
    CCSD energy         (file100)            =   -0.411005706063027
    Total CCSD energy   (file100)            = -106.459326865154054

    Number of ijk index combinations:              165
    Memory available in words        :      6250000000
    ~Words needed per explicit thread:          780448
    Number of threads for explicit ijk threading:    1

    MKL num_threads set to 1 for explicit threading.

    (T) energy                                =   -0.010624717017149
      * CCSD(T) total energy                  = -106.469951582171205


  //>>>>>>>>>>>>>>>>>>>>>>>>>>>>>>>>>>>//
  //    CBS Results: custom function   //
  //<<<<<<<<<<<<<<<<<<<<<<<<<<<<<<<<<<<//


   ==> HF <==

   HI-zeta (4) Energy:               -106.055444939621


   ==> Helgaker 2-point correlated extrapolation for method: MP2 <==

   LO-zeta (3) Energy:               -106.446195978695
   HI-zeta (4) Energy:               -106.528761199346
   Alpha (exponent) Value:             3.000000000000
   Extrapolated Energy:              -106.589011495497

   @Extrapolated MP2/(T,Q):          -106.589011495497



   ==> Helgaker 2-point correlated extrapolation for method: HF <==

   LO-zeta (3) Energy:               -106.048321159090
   HI-zeta (4) Energy:               -106.055444939621
   Alpha (exponent) Value:             3.000000000000
   Extrapolated Energy:              -106.060643374063

   @Extrapolated HF/(T,Q):           -106.060643374063



   ==> Helgaker 2-point correlated extrapolation for method: CCSD(T) <==

   LO-zeta (2) Energy:               -106.284421195998
   HI-zeta (3) Energy:               -106.469951582171
   Alpha (exponent) Value:             3.000000000000
   Extrapolated Energy:              -106.548069639507

   @Extrapolated CCSD(T)/(D,T):      -106.548069639507



   ==> Helgaker 2-point correlated extrapolation for method: MP2 <==

   LO-zeta (2) Energy:               -106.263968695722
   HI-zeta (3) Energy:               -106.446195978695
   Alpha (exponent) Value:             3.000000000000
   Extrapolated Energy:              -106.522923255737

   @Extrapolated MP2/(D,T):          -106.522923255737


   ==> Components <==

  ---------------------------------------------------------------------------------------------------------
                          Method / Basis                      Rqd      Energy [Eh]   Variable
  ---------------------------------------------------------------------------------------------------------
                              hf / def2-qzvpd                   *    -106.05544494   HF TOTAL ENERGY
                             mp2 / def2-qzvpd                   *    -106.52876120   MP2 TOTAL ENERGY
                              hf / def2-svpd                         -105.96245635   HF TOTAL ENERGY
                             mp2 / def2-svpd                    *    -106.26396870   MP2 TOTAL ENERGY
                            ccsd / def2-svpd                         -106.27741733   CCSD TOTAL ENERGY
                         ccsd(t) / def2-svpd                    *    -106.28442120   CCSD(T) TOTAL ENERGY
                              hf / def2-tzvpd                   *    -106.04832116   HF TOTAL ENERGY
                             mp2 / def2-tzvpd                   *    -106.44619598   MP2 TOTAL ENERGY
                            ccsd / def2-tzvpd                        -106.45932687   CCSD TOTAL ENERGY
                         ccsd(t) / def2-tzvpd                   *    -106.46995158   CCSD(T) TOTAL ENERGY
  ---------------------------------------------------------------------------------------------------------

   ==> Stages <==

  ---------------------------------------------------------------------------------------------------------
      Stage               Method / Basis                       Wt      Energy [Eh]   Scheme
  ---------------------------------------------------------------------------------------------------------
        scf                   hf / def2-qzvpd                   1    -106.05544494   xtpl_highest_1
       corl                  mp2 / def2-[tq]zvpd                1    -106.58901150   corl_xtpl_helgaker_2
       corl                   hf / def2-[tq]zvpd               -1    -106.06064337   corl_xtpl_helgaker_2
     delta1              ccsd(t) / def2-[st]zvpd                1    -106.54806964   corl_xtpl_helgaker_2
     delta1                  mp2 / def2-[st]zvpd               -1    -106.52292326   corl_xtpl_helgaker_2
  ---------------------------------------------------------------------------------------------------------

   ==> CBS <==

  ---------------------------------------------------------------------------------------------------------
      Stage               Method / Basis                               Energy [Eh]   Scheme
  ---------------------------------------------------------------------------------------------------------
        scf                   hf / def2-qzvpd                        -106.05544494   xtpl_highest_1
       corl                  mp2 / def2-[tq]zvpd                       -0.52836812   corl_xtpl_helgaker_2
     delta1        ccsd(t) - mp2 / def2-[st]zvpd                       -0.02514638   corl_xtpl_helgaker_2
      total                  CBS                                     -106.60895944   
  ---------------------------------------------------------------------------------------------------------
   => Loading Basis Set <=

    Name: DEF2-SVP
    Role: ORBITAL
    Keyword: BASIS
    atoms 1   entry LA         line  1831 (ECP: line  2906) file /home/jtg2769/poltype/miniconda3/envs/p4env/share/psi4/basis/def2-svp.gbs 
    atoms 2   entry O          line   130 file /home/jtg2769/poltype/miniconda3/envs/p4env/share/psi4/basis/def2-svp.gbs 
    atoms 3-4 entry H          line    15 file /home/jtg2769/poltype/miniconda3/envs/p4env/share/psi4/basis/def2-svp.gbs 

    !!!  WARNING: ECP capability is in beta. Please check occupations closely.  !!!


    Psi4 stopped on: Monday, 28 February 2022 03:15AM
    Psi4 wall time for execution: 0:01:09.49

*** Psi4 exiting successfully. Buy a developer a beer!
