
    -----------------------------------------------------------------------
          Psi4: An Open-Source Ab Initio Electronic Structure Package
                               Psi4 1.4a2.dev78 

                         Git: Rev {master} e512d40 


    R. M. Parrish, L. A. Burns, D. G. A. Smith, A. C. Simmonett,
    A. E. DePrince III, E. G. Hohenstein, U. Bozkaya, A. Yu. Sokolov,
    R. Di Remigio, R. M. Richard, J. F. Gonthier, A. M. James,
    H. R. McAlexander, A. Kumar, M. Saitow, X. Wang, B. P. Pritchard,
    P. Verma, H. F. Schaefer III, K. Patkowski, R. A. King, E. F. Valeev,
    F. A. Evangelista, J. M. Turney, T. D. Crawford, and C. D. Sherrill,
    J. Chem. Theory Comput. 13(7) pp 3185--3197 (2017).
    (doi: 10.1021/acs.jctc.7b00174)


                         Additional Contributions by
    P. Kraus, H. Kruse, M. H. Lechner, M. C. Schieber, R. A. Shaw,
    A. Alenaizan, R. Galvelis, Z. L. Glick, S. Lehtola, and J. P. Misiewicz

    -----------------------------------------------------------------------


    Psi4 started on: Monday, 28 February 2022 03:23AM

    Process ID: 2398124
    Host:       node215.bme.utexas.edu
    PSIDATADIR: /home/jtg2769/poltype/miniconda3/envs/p4env/share/psi4
    Memory:     500.0 MiB
    Threads:    1
    
  ==> Input File <==

--------------------------------------------------------------------------
memory 50 GB
set basis def2-QZVPD
set soscf true
set fail_on_maxiter false
molecule{
	3 1
	La -0.038392 -0.277582 0.000000
	--
	0 1
	O 0.381465 2.768276 0.000000
	H 0.472776 3.358178 0.761699
	H 0.472776 3.358178 -0.761699
}

energy(cbs, corl_wfn='mp2',corl_basis='def2-[TQ]ZVPD', delta_wfn='ccsd(t)', delta_basis='def2-[DT]ZVPD')
--------------------------------------------------------------------------

  Memory set to  46.566 GiB by Python driver.

  //>>>>>>>>>>>>>>>>>>>>>>>>>>>>>>>>>>>//
  //     CBS Setup: custom function    //
  //<<<<<<<<<<<<<<<<<<<<<<<<<<<<<<<<<<<//

    Naive listing of computations required.
             hf / def2-qzvpd               for  HF TOTAL ENERGY
            mp2 / def2-tzvpd               for  MP2 TOTAL ENERGY
            mp2 / def2-qzvpd               for  MP2 TOTAL ENERGY
             hf / def2-tzvpd               for  HF TOTAL ENERGY
             hf / def2-qzvpd               for  HF TOTAL ENERGY
        ccsd(t) / def2-svpd                for  CCSD(T) TOTAL ENERGY
        ccsd(t) / def2-tzvpd               for  CCSD(T) TOTAL ENERGY
            mp2 / def2-svpd                for  MP2 TOTAL ENERGY
            mp2 / def2-tzvpd               for  MP2 TOTAL ENERGY

    Enlightened listing of computations required.
            mp2 / def2-qzvpd               for  MP2 TOTAL ENERGY
        ccsd(t) / def2-svpd                for  CCSD(T) TOTAL ENERGY
        ccsd(t) / def2-tzvpd               for  CCSD(T) TOTAL ENERGY

    Full listing of computations to be obtained (required and bonus).
             hf / def2-qzvpd               for  HF TOTAL ENERGY
            mp2 / def2-qzvpd               for  MP2 TOTAL ENERGY
             hf / def2-svpd                for  HF TOTAL ENERGY
            mp2 / def2-svpd                for  MP2 TOTAL ENERGY
           ccsd / def2-svpd                for  CCSD TOTAL ENERGY
        ccsd(t) / def2-svpd                for  CCSD(T) TOTAL ENERGY
             hf / def2-tzvpd               for  HF TOTAL ENERGY
            mp2 / def2-tzvpd               for  MP2 TOTAL ENERGY
           ccsd / def2-tzvpd               for  CCSD TOTAL ENERGY
        ccsd(t) / def2-tzvpd               for  CCSD(T) TOTAL ENERGY

  //>>>>>>>>>>>>>>>>>>>>>>>>>>>>>>>>>>>//
  // CBS Computation: MP2 / DEF2-QZVPD //
  //<<<<<<<<<<<<<<<<<<<<<<<<<<<<<<<<<<<//

    SCF Algorithm Type (re)set to DF.

*** tstart() called on node215.bme.utexas.edu
*** at Mon Feb 28 03:23:15 2022

   => Loading Basis Set <=

    Name: DEF2-QZVPD
    Role: ORBITAL
    Keyword: BASIS
    atoms 1   entry LA         line  3634 (ECP: line  5113) file /home/jtg2769/poltype/miniconda3/envs/p4env/share/psi4/basis/def2-qzvpd.gbs 
    atoms 2   entry O          line   305 file /home/jtg2769/poltype/miniconda3/envs/p4env/share/psi4/basis/def2-qzvpd.gbs 
    atoms 3-4 entry H          line    14 file /home/jtg2769/poltype/miniconda3/envs/p4env/share/psi4/basis/def2-qzvpd.gbs 

    !!!  WARNING: ECP capability is in beta. Please check occupations closely.  !!!


         ---------------------------------------------------------
                                   SCF
               by Justin Turney, Rob Parrish, Andy Simmonett
                          and Daniel G. A. Smith
                              RHF Reference
                        1 Threads,  47683 MiB Core
         ---------------------------------------------------------

  ==> Geometry <==

    Molecular point group: cs
    Full point group: Cs

    Geometry (in Angstrom), charge = 3, multiplicity = 1:

       Center              X                  Y                   Z               Mass       
    ------------   -----------------  -----------------  -----------------  -----------------
         LA          -0.049363144720    -0.357174090469     0.000000000000   138.906356300000
         O            0.370493855280     2.688683909531     0.000000000000    15.994914619570
         H            0.461804855280     3.278585909531     0.761699000000     1.007825032230
         H            0.461804855280     3.278585909531    -0.761699000000     1.007825032230

  Running in cs symmetry.

  Rotational constants: A =     14.41293  B =      0.10671  C =      0.10592 [cm^-1]
  Rotational constants: A = 432088.89787  B =   3199.03273  C =   3175.52898 [MHz]
  Nuclear repulsion =   27.346876524127904

  Charge       = 3
  Multiplicity = 1
  Electrons    = 18
  Nalpha       = 9
  Nbeta        = 9

  ==> Algorithm <==

  SCF Algorithm Type is DF.
  DIIS enabled.
  MOM disabled.
  Fractional occupation disabled.
  Guess Type is SAD.
  Energy threshold   = 1.00e-08
  Density threshold  = 1.00e-08
  Integral threshold = 0.00e+00

  ==> Primary Basis <==

  Basis Set: DEF2-QZVPD
    Blend: DEF2-QZVPD
    Number of shells: 62
    Number of basis function: 204
    Number of Cartesian functions: 249
    Spherical Harmonics?: true
    Max angular momentum: 4

  Core potential: DEF2-QZVPD
    Number of shells: 4
    Number of ECP primitives: 10
    Number of ECP core electrons: 46
    Max angular momentum: 3

   => Loading Basis Set <=

    Name: (DEF2-QZVPD AUX)
    Role: JKFIT
    Keyword: DF_BASIS_SCF
    atoms 1   entry LA         line  5333 file /home/jtg2769/poltype/miniconda3/envs/p4env/share/psi4/basis/def2-qzvp-jkfit.gbs 
    atoms 2   entry O          line   323 file /home/jtg2769/poltype/miniconda3/envs/p4env/share/psi4/basis/def2-qzvp-jkfit.gbs 
    atoms 3-4 entry H          line    23 file /home/jtg2769/poltype/miniconda3/envs/p4env/share/psi4/basis/def2-qzvp-jkfit.gbs 

  ==> Pre-Iterations <==

   -------------------------------------------------------
    Irrep   Nso     Nmo     Nalpha   Nbeta   Ndocc  Nsocc
   -------------------------------------------------------
     A'       122     122       0       0       0       0
     A"        82      82       0       0       0       0
   -------------------------------------------------------
    Total     204     204       9       9       9       0
   -------------------------------------------------------

  ==> Integral Setup <==

  DFHelper Memory: AOs need 0.118 GiB; user supplied 34.925 GiB. Using in-core AOs.

  ==> MemDFJK: Density-Fitted J/K Matrices <==

    J tasked:                   Yes
    K tasked:                   Yes
    wK tasked:                   No
    OpenMP threads:               1
    Memory [MiB]:             35762
    Algorithm:                 Core
    Schwarz Cutoff:           1E-12
    Mask sparsity (%):       0.6344
    Fitting Condition:        1E-10

   => Auxiliary Basis Set <=

  Basis Set: (DEF2-QZVPD AUX)
    Blend: DEF2-QZVP-JKFIT
    Number of shells: 82
    Number of basis function: 340
    Number of Cartesian functions: 474
    Spherical Harmonics?: true
    Max angular momentum: 6

  Minimum eigenvalue in the overlap matrix is 6.4221432573E-05.
  Using Symmetric Orthogonalization.

  SCF Guess: Superposition of Atomic Densities via on-the-fly atomic UHF.

  ==> Iterations <==

                           Total Energy        Delta E     RMS |[F,P]|

   @DF-RHF iter SAD:  -106.44611756564174   -1.06446e+02   0.00000e+00 
   @DF-RHF iter   1:  -105.92333232325430    5.22785e-01   3.28128e-03 DIIS
   @DF-RHF iter   2:  -106.00105576974288   -7.77234e-02   2.01130e-03 DIIS
   @DF-RHF iter   3:  -106.02791748655157   -2.68617e-02   2.29131e-04 SOSCF, nmicro=5
   @DF-RHF iter   4:  -106.02890783140276   -9.90345e-04   4.42531e-06 SOSCF, nmicro=5
   @DF-RHF iter   5:  -106.02890826208339   -4.30681e-07   6.56532e-08 SOSCF, nmicro=5
   @DF-RHF iter   6:  -106.02890826214608   -6.26841e-11   1.00957e-09 SOSCF, nmicro=conv
  Energy and wave function converged.


  ==> Post-Iterations <==

    Orbital Energies [Eh]
    ---------------------

    Doubly Occupied:                                                      

       1Ap   -21.075751     2Ap    -2.614020     3Ap    -1.852179  
       1App   -1.811401     4Ap    -1.810962     5Ap    -1.804403  
       2App   -1.212100     6Ap    -1.113819     7Ap    -1.018415  

    Virtual:                                                              

       8Ap    -0.616216     3App   -0.616187     4App   -0.610352  
       9Ap    -0.608365    10Ap    -0.602887    11Ap    -0.564631  
       5App   -0.454801    12Ap    -0.451986    13Ap    -0.421832  
      14Ap    -0.306298     6App   -0.298677    15Ap    -0.298542  
       7App   -0.297226    16Ap    -0.293231    17Ap    -0.292808  
      18Ap    -0.265735     8App   -0.260243    19Ap    -0.256035  
       9App   -0.253350    20Ap    -0.248870    10App   -0.246297  
      11App   -0.246167    21Ap    -0.246018    22Ap    -0.242667  
      23Ap    -0.238923    12App   -0.203876    24Ap    -0.183649  
      25Ap    -0.174657    26Ap    -0.170888    27Ap    -0.138701  
      28Ap    -0.121764    13App   -0.118737    14App   -0.117577  
      29Ap    -0.113845    15App   -0.111922    30Ap    -0.105088  
      16App   -0.087881    31Ap    -0.072275    32Ap    -0.047974  
      33Ap    -0.043213    17App   -0.036579    18App   -0.005838  
      34Ap     0.021361    19App    0.030736    35Ap     0.035025  
      36Ap     0.065963    20App    0.079670    21App    0.086588  
      37Ap     0.092389    38Ap     0.100043    39Ap     0.124409  
      22App    0.128372    23App    0.138468    40Ap     0.140601  
      41Ap     0.157691    42Ap     0.160747    43Ap     0.174538  
      44Ap     0.177038    24App    0.177065    45Ap     0.178863  
      25App    0.180954    26App    0.190713    46Ap     0.230571  
      47Ap     0.243569    27App    0.257040    28App    0.264241  
      48Ap     0.316186    49Ap     0.348164    29App    0.375305  
      50Ap     0.382862    51Ap     0.393109    30App    0.456927  
      31App    0.544052    52Ap     0.552365    53Ap     0.559854  
      32App    0.563710    54Ap     0.570400    33App    0.574676  
      55Ap     0.576124    56Ap     0.650639    34App    0.707903  
      57Ap     0.750494    35App    0.814472    58Ap     0.834155  
      59Ap     0.877594    60Ap     0.990669    36App    1.048222  
      61Ap     1.049233    62Ap     1.053557    63Ap     1.059479  
      37App    1.063382    38App    1.069584    64Ap     1.084286  
      39App    1.130555    65Ap     1.132292    40App    1.147996  
      41App    1.350769    66Ap     1.357533    67Ap     1.363681  
      68Ap     1.385472    69Ap     1.703404    70Ap     1.745839  
      42App    1.795316    71Ap     1.833647    43App    2.042871  
      44App    2.056789    72Ap     2.226304    45App    2.232716  
      46App    2.251539    47App    2.404255    73Ap     2.427761  
      48App    2.450023    74Ap     2.476005    75Ap     2.524253  
      76Ap     2.747304    49App    2.895776    50App    3.083438  
      77Ap     3.091213    78Ap     3.345872    79Ap     3.517285  
      51App    3.729745    80Ap     3.746731    81Ap     3.765120  
      52App    3.902066    82Ap     4.069375    83Ap     4.113517  
      84Ap     4.126923    53App    4.245624    54App    4.409136  
      55App    4.679203    85Ap     4.720816    86Ap     5.218437  
      87Ap     5.239686    56App    5.383892    88Ap     5.522892  
      57App    5.779750    89Ap     5.824363    58App    5.884750  
      59App    6.264884    90Ap     6.339438    60App    6.610920  
      91Ap     6.849253    61App    7.038133    92Ap     7.126020  
      62App    7.166071    93Ap     7.247613    63App    7.258454  
      64App    7.356110    94Ap     7.410192    95Ap     7.583857  
      96Ap     7.599006    65App    7.707785    97Ap     7.708229  
      98Ap     7.759280    66App    7.789313    67App    7.867033  
      99Ap     8.012839    68App    8.194341   100Ap     8.436907  
      69App    8.489734    70App    8.648086   101Ap     8.660647  
     102Ap     8.919450    71App    9.023745   103Ap     9.821478  
     104Ap     9.857467   105Ap    10.238342    72App   10.261925  
      73App   10.692582   106Ap    10.750801    74App   10.933936  
      75App   11.136833   107Ap    11.164625   108Ap    11.222352  
     109Ap    11.356129   110Ap    11.478802    76App   11.515849  
     111Ap    11.562078   112Ap    11.787476   113Ap    11.817821  
      77App   11.849543    78App   11.919250   114Ap    12.187141  
     115Ap    12.340462    79App   12.917401    80App   13.494641  
     116Ap    13.697062   117Ap    13.765189    81App   14.086414  
     118Ap    14.494042   119Ap    16.768485    82App   16.807470  
     120Ap    32.944616   121Ap    49.175534   122Ap   256.319222  

    Final Occupation by Irrep:
             Ap   App 
    DOCC [     7,    2 ]

  @DF-RHF Final Energy:  -106.02890826214608

   => Energetics <=

    Nuclear Repulsion Energy =             27.3468765241279037
    One-Electron Energy =                -198.1254690484089735
    Two-Electron Energy =                  64.7496842621349913
    Total Energy =                       -106.0289082621460750

Computation Completed


Properties will be evaluated at   0.000000,   0.000000,   0.000000 [a0]

Properties computed using the SCF density matrix

  Nuclear Dipole Moment: [e a0]
     X:     6.3203      Y:    45.6137      Z:     0.0000

  Electronic Dipole Moment: [e a0]
     X:    -6.3443      Y:   -45.8866      Z:     0.0000

  Dipole Moment: [e a0]
     X:    -0.0240      Y:    -0.2729      Z:     0.0000     Total:     0.2739

  Dipole Moment: [D]
     X:    -0.0609      Y:    -0.6936      Z:     0.0000     Total:     0.6962


*** tstop() called on node215.bme.utexas.edu at Mon Feb 28 03:23:26 2022
Module time:
	user time   =      10.37 seconds =       0.17 minutes
	system time =       0.09 seconds =       0.00 minutes
	total time  =         11 seconds =       0.18 minutes
Total time:
	user time   =      10.37 seconds =       0.17 minutes
	system time =       0.09 seconds =       0.00 minutes
	total time  =         11 seconds =       0.18 minutes

*** tstart() called on node215.bme.utexas.edu
*** at Mon Feb 28 03:23:26 2022


  //>>>>>>>>>>>>>>>>>>>>>>>>>>>>>>>>>>>//
  //               DFMP2               //
  //<<<<<<<<<<<<<<<<<<<<<<<<<<<<<<<<<<<//

   => Loading Basis Set <=

    Name: (DEF2-QZVPD AUX)
    Role: RIFIT
    Keyword: DF_BASIS_MP2
    atoms 1   entry LA         line  5314 file /home/jtg2769/poltype/miniconda3/envs/p4env/share/psi4/basis/def2-qzvpp-ri.gbs 
    atoms 2   entry O          line   406 file /home/jtg2769/poltype/miniconda3/envs/p4env/share/psi4/basis/def2-qzvpp-ri.gbs 
    atoms 3-4 entry H          line    24 file /home/jtg2769/poltype/miniconda3/envs/p4env/share/psi4/basis/def2-qzvpp-ri.gbs 

	 --------------------------------------------------------
	                          DF-MP2                         
	      2nd-Order Density-Fitted Moller-Plesset Theory     
	              RMP2 Wavefunction,   1 Threads             
	                                                         
	        Rob Parrish, Justin Turney, Andy Simmonett,      
	           Ed Hohenstein, and C. David Sherrill          
	 --------------------------------------------------------

   => Auxiliary Basis Set <=

  Basis Set: (DEF2-QZVPD AUX)
    Blend: DEF2-QZVPP-RI
    Number of shells: 111
    Number of basis function: 505
    Number of Cartesian functions: 724
    Spherical Harmonics?: true
    Max angular momentum: 6

	 --------------------------------------------------------
	                 NBF =   204, NAUX =   505
	 --------------------------------------------------------
	   CLASS    FOCC     OCC    AOCC    AVIR     VIR    FVIR
	   PAIRS       0       9       9     195     195       0
	 --------------------------------------------------------

	-----------------------------------------------------------
	 ==================> DF-MP2 Energies <==================== 
	-----------------------------------------------------------
	 Reference Energy          =    -106.0289082621460750 [Eh]
	 Singles Energy            =      -0.0000000000000000 [Eh]
	 Same-Spin Energy          =      -0.1113939751357502 [Eh]
	 Opposite-Spin Energy      =      -0.3597501988087310 [Eh]
	 Correlation Energy        =      -0.4711441739444812 [Eh]
	 Total Energy              =    -106.5000524360905558 [Eh]
	-----------------------------------------------------------
	 ================> DF-SCS-MP2 Energies <================== 
	-----------------------------------------------------------
	 SCS Same-Spin Scale       =       0.3333333333333333 [-]
	 SCS Opposite-Spin Scale   =       1.2000000000000000 [-]
	 SCS Same-Spin Energy      =      -0.0371313250452501 [Eh]
	 SCS Opposite-Spin Energy  =      -0.4317002385704772 [Eh]
	 SCS Correlation Energy    =      -0.4688315636157273 [Eh]
	 SCS Total Energy          =    -106.4977398257617978 [Eh]
	-----------------------------------------------------------


*** tstop() called on node215.bme.utexas.edu at Mon Feb 28 03:23:27 2022
Module time:
	user time   =       1.09 seconds =       0.02 minutes
	system time =       0.05 seconds =       0.00 minutes
	total time  =          1 seconds =       0.02 minutes
Total time:
	user time   =      11.46 seconds =       0.19 minutes
	system time =       0.14 seconds =       0.00 minutes
	total time  =         12 seconds =       0.20 minutes

  //>>>>>>>>>>>>>>>>>>>>>>>>>>>>>>>>>>>>>>//
  // CBS Computation: CCSD(T) / DEF2-SVPD //
  //<<<<<<<<<<<<<<<<<<<<<<<<<<<<<<<<<<<<<<//


*** tstart() called on node215.bme.utexas.edu
*** at Mon Feb 28 03:23:27 2022

   => Loading Basis Set <=

    Name: DEF2-SVPD
    Role: ORBITAL
    Keyword: BASIS
    atoms 1   entry LA         line  2014 (ECP: line  3140) file /home/jtg2769/poltype/miniconda3/envs/p4env/share/psi4/basis/def2-svpd.gbs 
    atoms 2   entry O          line   149 file /home/jtg2769/poltype/miniconda3/envs/p4env/share/psi4/basis/def2-svpd.gbs 
    atoms 3-4 entry H          line    14 file /home/jtg2769/poltype/miniconda3/envs/p4env/share/psi4/basis/def2-svpd.gbs 

    !!!  WARNING: ECP capability is in beta. Please check occupations closely.  !!!


         ---------------------------------------------------------
                                   SCF
               by Justin Turney, Rob Parrish, Andy Simmonett
                          and Daniel G. A. Smith
                              RHF Reference
                        1 Threads,  47683 MiB Core
         ---------------------------------------------------------

  ==> Geometry <==

    Molecular point group: cs
    Full point group: Cs

    Geometry (in Angstrom), charge = 3, multiplicity = 1:

       Center              X                  Y                   Z               Mass       
    ------------   -----------------  -----------------  -----------------  -----------------
         LA          -0.049363144720    -0.357174090469     0.000000000000   138.906356300000
         O            0.370493855280     2.688683909531     0.000000000000    15.994914619570
         H            0.461804855280     3.278585909531     0.761699000000     1.007825032230
         H            0.461804855280     3.278585909531    -0.761699000000     1.007825032230

  Running in cs symmetry.

  Rotational constants: A =     14.41293  B =      0.10671  C =      0.10592 [cm^-1]
  Rotational constants: A = 432088.89787  B =   3199.03273  C =   3175.52898 [MHz]
  Nuclear repulsion =   27.346876524127904

  Charge       = 3
  Multiplicity = 1
  Electrons    = 18
  Nalpha       = 9
  Nbeta        = 9

  ==> Algorithm <==

  SCF Algorithm Type is PK.
  DIIS enabled.
  MOM disabled.
  Fractional occupation disabled.
  Guess Type is SAD.
  Energy threshold   = 1.00e-08
  Density threshold  = 1.00e-08
  Integral threshold = 0.00e+00

  ==> Primary Basis <==

  Basis Set: DEF2-SVPD
    Blend: DEF2-SVPD
    Number of shells: 30
    Number of basis function: 74
    Number of Cartesian functions: 81
    Spherical Harmonics?: true
    Max angular momentum: 3

  Core potential: DEF2-SVPD
    Number of shells: 4
    Number of ECP primitives: 10
    Number of ECP core electrons: 46
    Max angular momentum: 3

  ==> Pre-Iterations <==

   -------------------------------------------------------
    Irrep   Nso     Nmo     Nalpha   Nbeta   Ndocc  Nsocc
   -------------------------------------------------------
     A'        48      48       0       0       0       0
     A"        26      26       0       0       0       0
   -------------------------------------------------------
    Total      74      74       9       9       9       0
   -------------------------------------------------------

  ==> Integral Setup <==

  Using in-core PK algorithm.
   Calculation information:
      Number of atoms:                   4
      Number of AO shells:              30
      Number of primitives:             47
      Number of atomic orbitals:        81
      Number of basis functions:        74

      Integral cutoff                 1.00e-12
      Number of threads:                 1

  Performing in-core PK
  Using 7703400 doubles for integral storage.
  We computed 104594 shell quartets total.
  Whereas there are 108345 unique shell quartets.

  ==> DiskJK: Disk-Based J/K Matrices <==

    J tasked:                  Yes
    K tasked:                  Yes
    wK tasked:                  No
    Memory [MiB]:            35762
    Schwarz Cutoff:          1E-12

    OpenMP threads:              1

  Minimum eigenvalue in the overlap matrix is 1.8435181024E-03.
  Using Symmetric Orthogonalization.

  SCF Guess: Superposition of Atomic Densities via on-the-fly atomic UHF.

  ==> Iterations <==

                        Total Energy        Delta E     RMS |[F,P]|

   @RHF iter SAD:  -106.49067688171431   -1.06491e+02   0.00000e+00 
   @RHF iter   1:  -105.86509351242802    6.25583e-01   7.13837e-03 DIIS
   @RHF iter   2:  -105.91695996208647   -5.18664e-02   4.19586e-03 DIIS
   @RHF iter   3:  -105.93567163225268   -1.87117e-02   5.31402e-04 SOSCF, nmicro=5
   @RHF iter   4:  -105.93638105628875   -7.09424e-04   7.77857e-06 SOSCF, nmicro=5
   @RHF iter   5:  -105.93638127524567   -2.18957e-07   9.97017e-08 SOSCF, nmicro=5
   @RHF iter   6:  -105.93638127526965   -2.39879e-11   1.17538e-09 SOSCF, nmicro=conv
  Energy and wave function converged.


  ==> Post-Iterations <==

    Orbital Energies [Eh]
    ---------------------

    Doubly Occupied:                                                      

       1Ap   -21.082234     2Ap    -2.615820     3Ap    -1.836265  
       1App   -1.812894     4Ap    -1.812449     5Ap    -1.804858  
       2App   -1.215583     6Ap    -1.116525     7Ap    -1.020368  

    Virtual:                                                              

       8Ap    -0.617142     3App   -0.617114     4App   -0.611137  
       9Ap    -0.609124    10Ap    -0.603440    11Ap    -0.564002  
       5App   -0.450690    12Ap    -0.447758    13Ap    -0.417472  
      14Ap    -0.304960    15Ap    -0.291138     6App   -0.290812  
       7App   -0.288001    16Ap    -0.285839    17Ap    -0.281023  
       8App   -0.255083    18Ap    -0.252733    19Ap    -0.251669  
      20Ap    -0.222086     9App   -0.217891    21Ap    -0.191057  
      10App   -0.152290    22Ap    -0.126233    23Ap    -0.086514  
      11App   -0.075740    24Ap    -0.054588    12App   -0.042879  
      25Ap    -0.042610    26Ap    -0.035332    13App   -0.029360  
      27Ap     0.015112    14App    0.024113    28Ap     0.026598  
      29Ap     0.066136    15App    0.074424    16App    0.130945  
      30Ap     0.139018    17App    0.172421    31Ap     0.177953  
      32Ap     0.181643    18App    0.230478    33Ap     0.247007  
      34Ap     0.263288    19App    0.285169    35Ap     0.333164  
      36Ap     0.505289    37Ap     0.707728    20App    0.833617  
      38Ap     1.004272    39Ap     1.047183    21App    1.329589  
      22App    1.447738    40Ap     1.479665    41Ap     1.641092  
      23App    1.757431    42Ap     1.871476    24App    2.107973  
      43Ap     2.236874    44Ap     2.863699    25App    2.919106  
      45Ap     3.083131    46Ap     3.529102    26App    3.937471  
      47Ap    10.919280    48Ap    32.906339  

    Final Occupation by Irrep:
             Ap   App 
    DOCC [     7,    2 ]

  @RHF Final Energy:  -105.93638127526965

   => Energetics <=

    Nuclear Repulsion Energy =             27.3468765241279037
    One-Electron Energy =                -197.9325259140206583
    Two-Electron Energy =                  64.6492681146230979
    Total Energy =                       -105.9363812752696532

Computation Completed


Properties will be evaluated at   0.000000,   0.000000,   0.000000 [a0]

Properties computed using the SCF density matrix

  Nuclear Dipole Moment: [e a0]
     X:     6.3203      Y:    45.6137      Z:     0.0000

  Electronic Dipole Moment: [e a0]
     X:    -6.3441      Y:   -45.8873      Z:     0.0000

  Dipole Moment: [e a0]
     X:    -0.0237      Y:    -0.2736      Z:     0.0000     Total:     0.2746

  Dipole Moment: [D]
     X:    -0.0603      Y:    -0.6955      Z:     0.0000     Total:     0.6981


*** tstop() called on node215.bme.utexas.edu at Mon Feb 28 03:23:30 2022
Module time:
	user time   =       2.52 seconds =       0.04 minutes
	system time =       0.01 seconds =       0.00 minutes
	total time  =          3 seconds =       0.05 minutes
Total time:
	user time   =      13.99 seconds =       0.23 minutes
	system time =       0.15 seconds =       0.00 minutes
	total time  =         15 seconds =       0.25 minutes
 MINTS: Wrapper to libmints.
   by Justin Turney

   Calculation information:
      Number of threads:                 1
      Number of atoms:                   4
      Number of AO shells:              30
      Number of SO shells:              26
      Number of primitives:             47
      Number of atomic orbitals:        81
      Number of basis functions:        74

      Number of irreps:                  2
      Integral cutoff                 0.00e+00
      Number of functions per irrep: [  48   26 ]

 OEINTS: Overlap, kinetic, potential, dipole, and quadrupole integrals
         stored in file 35.

      Computing two-electron integrals...done
      Computed 1876206 non-zero two-electron integrals.
        Stored in file 33.


*** tstart() called on node215.bme.utexas.edu
*** at Mon Feb 28 03:23:31 2022


	Wfn Parameters:
	--------------------
	Wavefunction         = CCSD_T
	Number of irreps     = 2
	Number of MOs        = 74
	Number of active MOs = 74
	AO-Basis             = NONE
	Semicanonical        = false
	Reference            = RHF
	Print Level          = 1

	IRREP	# MOs	# FZDC	# DOCC	# SOCC	# VIRT	# FZVR
	-----	-----	------	------	------	------	------
	 Ap	   48	    0	    7	    0	    41	    0
	 App	   26	    0	    2	    0	    24	    0
	Transforming integrals...
	IWL integrals will be deleted.
	(OO|OO)...
	Presorting SO-basis two-electron integrals.
	Sorting File: SO Ints (nn|nn) nbuckets = 1
	Transforming the one-electron integrals and constructing Fock matrices
	Starting first half-transformation.
	Sorting half-transformed integrals.
	First half integral transformation complete.
	Starting second half-transformation.
	Two-electron integral transformation complete.
	(OO|OV)...
	Starting second half-transformation.
	Two-electron integral transformation complete.
	(OO|VV)...
	Starting second half-transformation.
	Two-electron integral transformation complete.
	(OV|OO)...
	Starting first half-transformation.
	Sorting half-transformed integrals.
	First half integral transformation complete.
	Starting second half-transformation.
	Two-electron integral transformation complete.
	(OV|OV)...
	Starting second half-transformation.
	Two-electron integral transformation complete.
	(OV|VV)...
	Starting second half-transformation.
	Two-electron integral transformation complete.
	(VV|OO)...
	Starting first half-transformation.
	Sorting half-transformed integrals.
	First half integral transformation complete.
	Starting second half-transformation.
	Two-electron integral transformation complete.
	(VV|OV)...
	Starting second half-transformation.
	Two-electron integral transformation complete.
	(VV|VV)...
	Starting second half-transformation.
	Two-electron integral transformation complete.
	Frozen core energy     =      0.00000000000000

	Size of irrep 0 of <ab|cd> integrals:      5.094 (MW) /     40.752 (MB)
	Size of irrep 1 of <ab|cd> integrals:      3.873 (MW) /     30.984 (MB)
	Total:                                     8.967 (MW) /     71.737 (MB)

	Size of irrep 0 of <ia|bc> integrals:      0.756 (MW) /      6.049 (MB)
	Size of irrep 1 of <ia|bc> integrals:      0.492 (MW) /      3.936 (MB)
	Total:                                     1.248 (MW) /      9.985 (MB)

	Size of irrep 0 of tijab amplitudes:       0.120 (MW) /      0.957 (MB)
	Size of irrep 1 of tijab amplitudes:       0.055 (MW) /      0.441 (MB)
	Total:                                     0.175 (MW) /      1.398 (MB)

	Nuclear Rep. energy          =     27.34687652412790
	SCF energy                   =   -105.93638127526965
	One-electron energy          =   -197.93252593823519
	Two-electron energy          =     64.64926813883721
	Reference energy             =   -105.93638127527007

*** tstop() called on node215.bme.utexas.edu at Mon Feb 28 03:23:33 2022
Module time:
	user time   =       0.79 seconds =       0.01 minutes
	system time =       0.34 seconds =       0.01 minutes
	total time  =          2 seconds =       0.03 minutes
Total time:
	user time   =      15.64 seconds =       0.26 minutes
	system time =       0.51 seconds =       0.01 minutes
	total time  =         18 seconds =       0.30 minutes
            **************************
            *                        *
            *        CCENERGY        *
            *                        *
            **************************

    Nuclear Rep. energy (wfn)     =   27.346876524127904
    SCF energy          (wfn)     = -105.936381275269653
    Reference energy    (file100) = -105.936381275270065

    Input parameters:
    -----------------
    Wave function   =     CCSD_T
    Reference wfn   =     RHF
    Brueckner       =     No
    Memory (Mbytes) =     50000.0
    Maxiter         =     50
    R_Convergence   =     1.0e-07
    E_Convergence   =     1.0e-06
    Restart         =     Yes
    DIIS            =     Yes
    AO Basis        =     NONE
    ABCD            =     NEW
    Cache Level     =     2
    Cache Type      =     LOW
    Print Level     =     1
    Num. of threads =     1
    # Amps to Print =     10
    Print MP2 Amps? =     No
    Analyze T2 Amps =     No
    Print Pair Ener =     No
    Local CC        =     No
    SCS-MP2         =     False
    SCSN-MP2        =     False
    SCS-CCSD        =     False

MP2 correlation energy -0.2979347897693230
                Solving CC Amplitude Equations
                ------------------------------
  Iter             Energy              RMS        T1Diag      D1Diag    New D1Diag    D2Diag
  ----     ---------------------    ---------   ----------  ----------  ----------   --------
     0        -0.297934789769323    0.000e+00    0.000000    0.000000    0.000000    0.115444
     1        -0.304105878747843    4.950e-02    0.009111    0.026311    0.026311    0.117154
     2        -0.309510378727939    1.855e-02    0.008987    0.025307    0.025307    0.122623
     3        -0.311509846363475    1.120e-02    0.010910    0.032067    0.032067    0.124849
     4        -0.311717116667855    4.389e-03    0.011848    0.035456    0.035456    0.125597
     5        -0.311634935410113    2.653e-03    0.012412    0.037964    0.037964    0.125879
     6        -0.311639233941198    1.399e-03    0.012748    0.039567    0.039567    0.125936
     7        -0.311651145292732    5.978e-04    0.012921    0.040511    0.040511    0.125899
     8        -0.311643329195353    2.634e-04    0.012947    0.040761    0.040761    0.125860
     9        -0.311642197664612    1.144e-04    0.012958    0.040884    0.040884    0.125847
    10        -0.311643943114585    4.758e-05    0.012960    0.040926    0.040926    0.125848
    11        -0.311643478029431    2.051e-05    0.012959    0.040934    0.040934    0.125847
    12        -0.311643209597064    6.645e-06    0.012959    0.040937    0.040937    0.125847
    13        -0.311643069875313    2.631e-06    0.012959    0.040938    0.040938    0.125846
    14        -0.311642988882346    1.167e-06    0.012959    0.040938    0.040938    0.125846
    15        -0.311642966251841    4.345e-07    0.012959    0.040938    0.040938    0.125846
    16        -0.311642957070072    2.333e-07    0.012959    0.040938    0.040938    0.125846
    17        -0.311642955337214    1.121e-07    0.012959    0.040938    0.040938    0.125846
    18        -0.311642955249019    5.707e-08    0.012959    0.040938    0.040938    0.125846

    Iterations converged.


    Largest TIA Amplitudes:
              6   1        -0.0343452797
              5   3         0.0204824946
              5   2        -0.0162409676
              6  13        -0.0155746857
              5   5         0.0117901561
              6   4        -0.0108039528
              6  21        -0.0076245791
              6   9        -0.0071490733
              8  62        -0.0065385800
              2   5         0.0063217672

    Largest TIjAb Amplitudes:
      6   6  30  30        -0.0335453136
      7   7   0   0        -0.0278655067
      4   4   2   2        -0.0277058470
      3   3  41  41        -0.0271324158
      7   7  41  41        -0.0270983910
      7   7  42  42        -0.0268306588
      3   3   1   1        -0.0266233699
      3   3   0   0        -0.0263185693
      4   4  42  42        -0.0253912930
      4   4   1   1        -0.0252423654

    SCF energy       (wfn)                    = -105.936381275269653
    Reference energy (file100)                = -105.936381275270065

    Opposite-spin MP2 correlation energy      =   -0.219718832476736
    Same-spin MP2 correlation energy          =   -0.078215957292587
    MP2 correlation energy                    =   -0.297934789769323
      * MP2 total energy                      = -106.234316065039394

    Opposite-spin CCSD correlation energy     =   -0.239698650475821
    Same-spin CCSD correlation energy         =   -0.071944304773198
    CCSD correlation energy                   =   -0.311642955249019
      * CCSD total energy                     = -106.248024230519079

            **************************
            *                        *
            *        CCTRIPLES       *
            *                        *
            **************************


    Wave function   =    CCSD_T
    Reference wfn   =      RHF

    Nuclear Rep. energy (wfn)                =   27.346876524127904
    SCF energy          (wfn)                = -105.936381275269653
    Reference energy    (file100)            = -105.936381275270065
    CCSD energy         (file100)            =   -0.311642955249019
    Total CCSD energy   (file100)            = -106.248024230519079

    Number of ijk index combinations:              165
    Memory available in words        :      6250000000
    ~Words needed per explicit thread:          275684
    Number of threads for explicit ijk threading:    1

    MKL num_threads set to 1 for explicit threading.

    (T) energy                                =   -0.006878991349889
      * CCSD(T) total energy                  = -106.254903221868972


  //>>>>>>>>>>>>>>>>>>>>>>>>>>>>>>>>>>>>>>>//
  // CBS Computation: CCSD(T) / DEF2-TZVPD //
  //<<<<<<<<<<<<<<<<<<<<<<<<<<<<<<<<<<<<<<<//


*** tstart() called on node215.bme.utexas.edu
*** at Mon Feb 28 03:23:52 2022

   => Loading Basis Set <=

    Name: DEF2-TZVPD
    Role: ORBITAL
    Keyword: BASIS
    atoms 1   entry LA         line  2525 (ECP: line  3764) file /home/jtg2769/poltype/miniconda3/envs/p4env/share/psi4/basis/def2-tzvpd.gbs 
    atoms 2   entry O          line   208 file /home/jtg2769/poltype/miniconda3/envs/p4env/share/psi4/basis/def2-tzvpd.gbs 
    atoms 3-4 entry H          line    14 file /home/jtg2769/poltype/miniconda3/envs/p4env/share/psi4/basis/def2-tzvpd.gbs 

    !!!  WARNING: ECP capability is in beta. Please check occupations closely.  !!!


         ---------------------------------------------------------
                                   SCF
               by Justin Turney, Rob Parrish, Andy Simmonett
                          and Daniel G. A. Smith
                              RHF Reference
                        1 Threads,  47683 MiB Core
         ---------------------------------------------------------

  ==> Geometry <==

    Molecular point group: cs
    Full point group: Cs

    Geometry (in Angstrom), charge = 3, multiplicity = 1:

       Center              X                  Y                   Z               Mass       
    ------------   -----------------  -----------------  -----------------  -----------------
         LA          -0.049363144720    -0.357174090469     0.000000000000   138.906356300000
         O            0.370493855280     2.688683909531     0.000000000000    15.994914619570
         H            0.461804855280     3.278585909531     0.761699000000     1.007825032230
         H            0.461804855280     3.278585909531    -0.761699000000     1.007825032230

  Running in cs symmetry.

  Rotational constants: A =     14.41293  B =      0.10671  C =      0.10592 [cm^-1]
  Rotational constants: A = 432088.89787  B =   3199.03273  C =   3175.52898 [MHz]
  Nuclear repulsion =   27.346876524127904

  Charge       = 3
  Multiplicity = 1
  Electrons    = 18
  Nalpha       = 9
  Nbeta        = 9

  ==> Algorithm <==

  SCF Algorithm Type is PK.
  DIIS enabled.
  MOM disabled.
  Fractional occupation disabled.
  Guess Type is SAD.
  Energy threshold   = 1.00e-08
  Density threshold  = 1.00e-08
  Integral threshold = 0.00e+00

  ==> Primary Basis <==

  Basis Set: DEF2-TZVPD
    Blend: DEF2-TZVPD
    Number of shells: 39
    Number of basis function: 101
    Number of Cartesian functions: 113
    Spherical Harmonics?: true
    Max angular momentum: 3

  Core potential: DEF2-TZVPD
    Number of shells: 4
    Number of ECP primitives: 10
    Number of ECP core electrons: 46
    Max angular momentum: 3

  ==> Pre-Iterations <==

   -------------------------------------------------------
    Irrep   Nso     Nmo     Nalpha   Nbeta   Ndocc  Nsocc
   -------------------------------------------------------
     A'        65      65       0       0       0       0
     A"        36      36       0       0       0       0
   -------------------------------------------------------
    Total     101     101       9       9       9       0
   -------------------------------------------------------

  ==> Integral Setup <==

  Using in-core PK algorithm.
   Calculation information:
      Number of atoms:                   4
      Number of AO shells:              39
      Number of primitives:             58
      Number of atomic orbitals:       113
      Number of basis functions:       101

      Integral cutoff                 1.00e-12
      Number of threads:                 1

  Performing in-core PK
  Using 26537952 doubles for integral storage.
  We computed 289752 shell quartets total.
  Whereas there are 304590 unique shell quartets.

  ==> DiskJK: Disk-Based J/K Matrices <==

    J tasked:                  Yes
    K tasked:                  Yes
    wK tasked:                  No
    Memory [MiB]:            35762
    Schwarz Cutoff:          1E-12

    OpenMP threads:              1

  Minimum eigenvalue in the overlap matrix is 6.5192775824E-04.
  Using Symmetric Orthogonalization.

  SCF Guess: Superposition of Atomic Densities via on-the-fly atomic UHF.

  ==> Iterations <==

                        Total Energy        Delta E     RMS |[F,P]|

   @RHF iter SAD:  -106.54561898342328   -1.06546e+02   0.00000e+00 
   @RHF iter   1:  -105.94772306734599    5.97896e-01   5.57602e-03 DIIS
   @RHF iter   2:  -106.00093373656519   -5.32107e-02   3.47169e-03 DIIS
   @RHF iter   3:  -106.02183524452656   -2.09015e-02   3.79196e-04 SOSCF, nmicro=5
   @RHF iter   4:  -106.02255181894520   -7.16574e-04   6.03912e-06 SOSCF, nmicro=5
   @RHF iter   5:  -106.02255203127676   -2.12332e-07   1.04289e-07 SOSCF, nmicro=5
   @RHF iter   6:  -106.02255203131683   -4.00746e-11   1.52321e-09 SOSCF, nmicro=conv
  Energy and wave function converged.


  ==> Post-Iterations <==

    Orbital Energies [Eh]
    ---------------------

    Doubly Occupied:                                                      

       1Ap   -21.077142     2Ap    -2.614419     3Ap    -1.852148  
       1App   -1.811903     4Ap    -1.811431     5Ap    -1.804752  
       2App   -1.211987     6Ap    -1.113897     7Ap    -1.018075  

    Virtual:                                                              

       8Ap    -0.616551     3App   -0.616519     4App   -0.610662  
       9Ap    -0.608595    10Ap    -0.603098    11Ap    -0.564419  
       5App   -0.449275    12Ap    -0.446242    13Ap    -0.417683  
      14Ap    -0.305153    15Ap    -0.291401     6App   -0.290955  
       7App   -0.290197    16Ap    -0.286241    17Ap    -0.282734  
      18Ap    -0.256198     8App   -0.255493    19Ap    -0.251861  
      20Ap    -0.230196     9App   -0.227271    21Ap    -0.210302  
      10App   -0.169072    22Ap    -0.158682    23Ap    -0.132455  
      11App   -0.112386    24Ap    -0.082327    25Ap    -0.057110  
      26Ap    -0.054659    12App   -0.046001    27Ap    -0.043072  
      13App   -0.039011    14App   -0.036468    15App   -0.035693  
      28Ap    -0.025280    29Ap    -0.023479    30Ap    -0.006726  
      31Ap    -0.004527    16App    0.017152    17App    0.057030  
      32Ap     0.078688    18App    0.115273    33Ap     0.133200  
      34Ap     0.143288    19App    0.150399    35Ap     0.176224  
      20App    0.200608    36Ap     0.211973    21App    0.258091  
      37Ap     0.266855    38Ap     0.304465    39Ap     0.381566  
      40Ap     0.433765    41Ap     0.440572    22App    0.510195  
      42Ap     0.616549    23App    0.625804    43Ap     0.765862  
      24App    1.272796    44Ap     1.388860    45Ap     1.422703  
      25App    1.527653    46Ap     1.589594    26App    1.639776  
      47Ap     1.888840    27App    1.939510    48Ap     2.128921  
      49Ap     2.301466    28App    2.436275    29App    2.660170  
      50Ap     2.702433    51Ap     2.731921    52Ap     2.983600  
      53Ap     3.701406    30App    3.884794    54Ap     5.024330  
      55Ap     5.177135    56Ap     5.344790    31App    5.395502  
      32App    5.408558    33App    6.044435    57Ap     6.283205  
      58Ap     6.464765    34App    6.511426    59Ap     6.569239  
      60Ap     6.910728    35App    7.056275    61Ap    10.958837  
      62Ap    11.095059    36App   11.136107    63Ap    11.610109  
      64Ap    32.921571    65Ap    44.735839  

    Final Occupation by Irrep:
             Ap   App 
    DOCC [     7,    2 ]

  @RHF Final Energy:  -106.02255203131683

   => Energetics <=

    Nuclear Repulsion Energy =             27.3468765241279037
    One-Electron Energy =                -198.1073463322895236
    Two-Electron Energy =                  64.7379177768447818
    Total Energy =                       -106.0225520313168346

Computation Completed


Properties will be evaluated at   0.000000,   0.000000,   0.000000 [a0]

Properties computed using the SCF density matrix

  Nuclear Dipole Moment: [e a0]
     X:     6.3203      Y:    45.6137      Z:     0.0000

  Electronic Dipole Moment: [e a0]
     X:    -6.3450      Y:   -45.8911      Z:     0.0000

  Dipole Moment: [e a0]
     X:    -0.0247      Y:    -0.2774      Z:     0.0000     Total:     0.2785

  Dipole Moment: [D]
     X:    -0.0627      Y:    -0.7051      Z:     0.0000     Total:     0.7079


*** tstop() called on node215.bme.utexas.edu at Mon Feb 28 03:23:58 2022
Module time:
	user time   =       5.45 seconds =       0.09 minutes
	system time =       0.05 seconds =       0.00 minutes
	total time  =          6 seconds =       0.10 minutes
Total time:
	user time   =      24.99 seconds =       0.42 minutes
	system time =       2.00 seconds =       0.03 minutes
	total time  =         43 seconds =       0.72 minutes
 MINTS: Wrapper to libmints.
   by Justin Turney

   Calculation information:
      Number of threads:                 1
      Number of atoms:                   4
      Number of AO shells:              39
      Number of SO shells:              34
      Number of primitives:             58
      Number of atomic orbitals:       113
      Number of basis functions:       101

      Number of irreps:                  2
      Integral cutoff                 0.00e+00
      Number of functions per irrep: [  65   36 ]

 OEINTS: Overlap, kinetic, potential, dipole, and quadrupole integrals
         stored in file 35.

      Computing two-electron integrals...done
      Computed 6452097 non-zero two-electron integrals.
        Stored in file 33.


*** tstart() called on node215.bme.utexas.edu
*** at Mon Feb 28 03:24:00 2022


	Wfn Parameters:
	--------------------
	Wavefunction         = CCSD_T
	Number of irreps     = 2
	Number of MOs        = 101
	Number of active MOs = 101
	AO-Basis             = NONE
	Semicanonical        = false
	Reference            = RHF
	Print Level          = 1

	IRREP	# MOs	# FZDC	# DOCC	# SOCC	# VIRT	# FZVR
	-----	-----	------	------	------	------	------
	 Ap	   65	    0	    7	    0	    58	    0
	 App	   36	    0	    2	    0	    34	    0
	Transforming integrals...
	IWL integrals will be deleted.
	(OO|OO)...
	Presorting SO-basis two-electron integrals.
	Sorting File: SO Ints (nn|nn) nbuckets = 1
	Transforming the one-electron integrals and constructing Fock matrices
	Starting first half-transformation.
	Sorting half-transformed integrals.
	First half integral transformation complete.
	Starting second half-transformation.
	Two-electron integral transformation complete.
	(OO|OV)...
	Starting second half-transformation.
	Two-electron integral transformation complete.
	(OO|VV)...
	Starting second half-transformation.
	Two-electron integral transformation complete.
	(OV|OO)...
	Starting first half-transformation.
	Sorting half-transformed integrals.
	First half integral transformation complete.
	Starting second half-transformation.
	Two-electron integral transformation complete.
	(OV|OV)...
	Starting second half-transformation.
	Two-electron integral transformation complete.
	(OV|VV)...
	Starting second half-transformation.
	Two-electron integral transformation complete.
	(VV|OO)...
	Starting first half-transformation.
	Sorting half-transformed integrals.
	First half integral transformation complete.
	Starting second half-transformation.
	Two-electron integral transformation complete.
	(VV|OV)...
	Starting second half-transformation.
	Two-electron integral transformation complete.
	(VV|VV)...
	Starting second half-transformation.
	Two-electron integral transformation complete.
	Frozen core energy     =      0.00000000000000

	Size of irrep 0 of <ab|cd> integrals:     20.430 (MW) /    163.443 (MB)
	Size of irrep 1 of <ab|cd> integrals:     15.555 (MW) /    124.441 (MB)
	Total:                                    35.986 (MW) /    287.884 (MB)

	Size of irrep 0 of <ia|bc> integrals:      2.142 (MW) /     17.140 (MB)
	Size of irrep 1 of <ia|bc> integrals:      1.396 (MW) /     11.169 (MB)
	Total:                                     3.539 (MW) /     28.309 (MB)

	Size of irrep 0 of tijab amplitudes:       0.240 (MW) /      1.916 (MB)
	Size of irrep 1 of tijab amplitudes:       0.110 (MW) /      0.883 (MB)
	Total:                                     0.350 (MW) /      2.800 (MB)

	Nuclear Rep. energy          =     27.34687652412790
	SCF energy                   =   -106.02255203131683
	One-electron energy          =   -198.10734650173984
	Two-electron energy          =     64.73791794629473
	Reference energy             =   -106.02255203131719

*** tstop() called on node215.bme.utexas.edu at Mon Feb 28 03:24:05 2022
Module time:
	user time   =       2.60 seconds =       0.04 minutes
	system time =       1.40 seconds =       0.02 minutes
	total time  =          5 seconds =       0.08 minutes
Total time:
	user time   =      29.29 seconds =       0.49 minutes
	system time =       3.45 seconds =       0.06 minutes
	total time  =         50 seconds =       0.83 minutes
            **************************
            *                        *
            *        CCENERGY        *
            *                        *
            **************************

    Nuclear Rep. energy (wfn)     =   27.346876524127904
    SCF energy          (wfn)     = -106.022552031316835
    Reference energy    (file100) = -106.022552031317190

    Input parameters:
    -----------------
    Wave function   =     CCSD_T
    Reference wfn   =     RHF
    Brueckner       =     No
    Memory (Mbytes) =     50000.0
    Maxiter         =     50
    R_Convergence   =     1.0e-07
    E_Convergence   =     1.0e-06
    Restart         =     Yes
    DIIS            =     Yes
    AO Basis        =     NONE
    ABCD            =     NEW
    Cache Level     =     2
    Cache Type      =     LOW
    Print Level     =     1
    Num. of threads =     1
    # Amps to Print =     10
    Print MP2 Amps? =     No
    Analyze T2 Amps =     No
    Print Pair Ener =     No
    Local CC        =     No
    SCS-MP2         =     False
    SCSN-MP2        =     False
    SCS-CCSD        =     False

MP2 correlation energy -0.3961983216972056
                Solving CC Amplitude Equations
                ------------------------------
  Iter             Energy              RMS        T1Diag      D1Diag    New D1Diag    D2Diag
  ----     ---------------------    ---------   ----------  ----------  ----------   --------
     0        -0.396198321697206    0.000e+00    0.000000    0.000000    0.000000    0.119850
     1        -0.401619400288799    4.666e-02    0.007813    0.022799    0.022799    0.119990
     2        -0.407608580845923    1.812e-02    0.007438    0.021168    0.021168    0.125193
     3        -0.409684116456401    1.029e-02    0.009031    0.026922    0.026922    0.127156
     4        -0.409792859217715    3.921e-03    0.009842    0.029787    0.029787    0.127797
     5        -0.409692162975983    2.419e-03    0.010316    0.031844    0.031844    0.128044
     6        -0.409711102834948    1.355e-03    0.010681    0.033505    0.033505    0.128137
     7        -0.409725468173558    5.365e-04    0.010836    0.034311    0.034311    0.128110
     8        -0.409714398351278    2.539e-04    0.010863    0.034557    0.034557    0.128068
     9        -0.409710944763824    1.045e-04    0.010874    0.034670    0.034670    0.128056
    10        -0.409715302686375    4.450e-05    0.010876    0.034707    0.034707    0.128058
    11        -0.409713875195196    2.021e-05    0.010876    0.034720    0.034720    0.128056
    12        -0.409713730425178    7.053e-06    0.010875    0.034721    0.034721    0.128056
    13        -0.409713682002575    2.647e-06    0.010875    0.034723    0.034723    0.128056
    14        -0.409713596961025    1.056e-06    0.010875    0.034723    0.034723    0.128056
    15        -0.409713567480892    3.832e-07    0.010875    0.034723    0.034723    0.128056
    16        -0.409713565767441    1.921e-07    0.010875    0.034723    0.034723    0.128056
    17        -0.409713564842197    9.851e-08    0.010875    0.034723    0.034723    0.128056

    Iterations converged.


    Largest TIA Amplitudes:
              6   1         0.0297690058
              5   3         0.0173945729
              5   2        -0.0132673065
              5   5         0.0101403976
              6  13        -0.0096913263
              6   4        -0.0092478706
              6  22        -0.0071477330
              8  84         0.0063275945
              6   9         0.0060009986
              6  43        -0.0057456979

    Largest TIjAb Amplitudes:
      4   4   2   2        -0.0286643361
      7   7   0   0        -0.0278390713
      3   3  58  58        -0.0270770347
      7   7  58  58        -0.0270406198
      7   7  59  59        -0.0268085648
      3   3   1   1        -0.0267475525
      4   4  59  59        -0.0263810573
      4   4   1   1        -0.0262973839
      3   3   0   0        -0.0262259084
      6   6  32  32        -0.0239070833

    SCF energy       (wfn)                    = -106.022552031316835
    Reference energy (file100)                = -106.022552031317190

    Opposite-spin MP2 correlation energy      =   -0.297270905137734
    Same-spin MP2 correlation energy          =   -0.098927416559472
    MP2 correlation energy                    =   -0.396198321697206
      * MP2 total energy                      = -106.418750353014389

    Opposite-spin CCSD correlation energy     =   -0.319153090068672
    Same-spin CCSD correlation energy         =   -0.090560474773525
    CCSD correlation energy                   =   -0.409713564842197
      * CCSD total energy                     = -106.432265596159382

            **************************
            *                        *
            *        CCTRIPLES       *
            *                        *
            **************************


    Wave function   =    CCSD_T
    Reference wfn   =      RHF

    Nuclear Rep. energy (wfn)                =   27.346876524127904
    SCF energy          (wfn)                = -106.022552031316835
    Reference energy    (file100)            = -106.022552031317190
    CCSD energy         (file100)            =   -0.409713564842197
    Total CCSD energy   (file100)            = -106.432265596159382

    Number of ijk index combinations:              165
    Memory available in words        :      6250000000
    ~Words needed per explicit thread:          780448
    Number of threads for explicit ijk threading:    1

    MKL num_threads set to 1 for explicit threading.

    (T) energy                                =   -0.010509927327198
      * CCSD(T) total energy                  = -106.442775523486588


  //>>>>>>>>>>>>>>>>>>>>>>>>>>>>>>>>>>>//
  //    CBS Results: custom function   //
  //<<<<<<<<<<<<<<<<<<<<<<<<<<<<<<<<<<<//


   ==> HF <==

   HI-zeta (4) Energy:               -106.028908262146


   ==> Helgaker 2-point correlated extrapolation for method: MP2 <==

   LO-zeta (3) Energy:               -106.418750353014
   HI-zeta (4) Energy:               -106.500052436091
   Alpha (exponent) Value:             3.000000000000
   Extrapolated Energy:              -106.559380983200

   @Extrapolated MP2/(T,Q):          -106.559380983200



   ==> Helgaker 2-point correlated extrapolation for method: HF <==

   LO-zeta (3) Energy:               -106.022552031317
   HI-zeta (4) Energy:               -106.028908262146
   Alpha (exponent) Value:             3.000000000000
   Extrapolated Energy:              -106.033546592751

   @Extrapolated HF/(T,Q):           -106.033546592751



   ==> Helgaker 2-point correlated extrapolation for method: CCSD(T) <==

   LO-zeta (2) Energy:               -106.254903221869
   HI-zeta (3) Energy:               -106.442775523487
   Alpha (exponent) Value:             3.000000000000
   Extrapolated Energy:              -106.521879650483

   @Extrapolated CCSD(T)/(D,T):      -106.521879650483



   ==> Helgaker 2-point correlated extrapolation for method: MP2 <==

   LO-zeta (2) Energy:               -106.234316065039
   HI-zeta (3) Energy:               -106.418750353014
   Alpha (exponent) Value:             3.000000000000
   Extrapolated Energy:              -106.496406895320

   @Extrapolated MP2/(D,T):          -106.496406895320


   ==> Components <==

  ---------------------------------------------------------------------------------------------------------
                          Method / Basis                      Rqd      Energy [Eh]   Variable
  ---------------------------------------------------------------------------------------------------------
                              hf / def2-qzvpd                   *    -106.02890826   HF TOTAL ENERGY
                             mp2 / def2-qzvpd                   *    -106.50005244   MP2 TOTAL ENERGY
                              hf / def2-svpd                         -105.93638128   HF TOTAL ENERGY
                             mp2 / def2-svpd                    *    -106.23431607   MP2 TOTAL ENERGY
                            ccsd / def2-svpd                         -106.24802423   CCSD TOTAL ENERGY
                         ccsd(t) / def2-svpd                    *    -106.25490322   CCSD(T) TOTAL ENERGY
                              hf / def2-tzvpd                   *    -106.02255203   HF TOTAL ENERGY
                             mp2 / def2-tzvpd                   *    -106.41875035   MP2 TOTAL ENERGY
                            ccsd / def2-tzvpd                        -106.43226560   CCSD TOTAL ENERGY
                         ccsd(t) / def2-tzvpd                   *    -106.44277552   CCSD(T) TOTAL ENERGY
  ---------------------------------------------------------------------------------------------------------

   ==> Stages <==

  ---------------------------------------------------------------------------------------------------------
      Stage               Method / Basis                       Wt      Energy [Eh]   Scheme
  ---------------------------------------------------------------------------------------------------------
        scf                   hf / def2-qzvpd                   1    -106.02890826   xtpl_highest_1
       corl                  mp2 / def2-[tq]zvpd                1    -106.55938098   corl_xtpl_helgaker_2
       corl                   hf / def2-[tq]zvpd               -1    -106.03354659   corl_xtpl_helgaker_2
     delta1              ccsd(t) / def2-[st]zvpd                1    -106.52187965   corl_xtpl_helgaker_2
     delta1                  mp2 / def2-[st]zvpd               -1    -106.49640690   corl_xtpl_helgaker_2
  ---------------------------------------------------------------------------------------------------------

   ==> CBS <==

  ---------------------------------------------------------------------------------------------------------
      Stage               Method / Basis                               Energy [Eh]   Scheme
  ---------------------------------------------------------------------------------------------------------
        scf                   hf / def2-qzvpd                        -106.02890826   xtpl_highest_1
       corl                  mp2 / def2-[tq]zvpd                       -0.52583439   corl_xtpl_helgaker_2
     delta1        ccsd(t) - mp2 / def2-[st]zvpd                       -0.02547276   corl_xtpl_helgaker_2
      total                  CBS                                     -106.58021541   
  ---------------------------------------------------------------------------------------------------------
   => Loading Basis Set <=

    Name: DEF2-SVP
    Role: ORBITAL
    Keyword: BASIS
    atoms 1   entry LA         line  1831 (ECP: line  2906) file /home/jtg2769/poltype/miniconda3/envs/p4env/share/psi4/basis/def2-svp.gbs 
    atoms 2   entry O          line   130 file /home/jtg2769/poltype/miniconda3/envs/p4env/share/psi4/basis/def2-svp.gbs 
    atoms 3-4 entry H          line    15 file /home/jtg2769/poltype/miniconda3/envs/p4env/share/psi4/basis/def2-svp.gbs 

    !!!  WARNING: ECP capability is in beta. Please check occupations closely.  !!!


    Psi4 stopped on: Monday, 28 February 2022 03:24AM
    Psi4 wall time for execution: 0:01:13.75

*** Psi4 exiting successfully. Buy a developer a beer!
