
    -----------------------------------------------------------------------
          Psi4: An Open-Source Ab Initio Electronic Structure Package
                               Psi4 1.4a2.dev78 

                         Git: Rev {master} e512d40 


    R. M. Parrish, L. A. Burns, D. G. A. Smith, A. C. Simmonett,
    A. E. DePrince III, E. G. Hohenstein, U. Bozkaya, A. Yu. Sokolov,
    R. Di Remigio, R. M. Richard, J. F. Gonthier, A. M. James,
    H. R. McAlexander, A. Kumar, M. Saitow, X. Wang, B. P. Pritchard,
    P. Verma, H. F. Schaefer III, K. Patkowski, R. A. King, E. F. Valeev,
    F. A. Evangelista, J. M. Turney, T. D. Crawford, and C. D. Sherrill,
    J. Chem. Theory Comput. 13(7) pp 3185--3197 (2017).
    (doi: 10.1021/acs.jctc.7b00174)


                         Additional Contributions by
    P. Kraus, H. Kruse, M. H. Lechner, M. C. Schieber, R. A. Shaw,
    A. Alenaizan, R. Galvelis, Z. L. Glick, S. Lehtola, and J. P. Misiewicz

    -----------------------------------------------------------------------


    Psi4 started on: Monday, 28 February 2022 03:25AM

    Process ID: 3462332
    Host:       node75.bme.utexas.edu
    PSIDATADIR: /home/jtg2769/poltype/miniconda3/envs/p4env/share/psi4
    Memory:     500.0 MiB
    Threads:    1
    
  ==> Input File <==

--------------------------------------------------------------------------
memory 50 GB
set basis def2-QZVPD
set soscf true
set fail_on_maxiter false
molecule{
	3 1
	La -0.038392 -0.277582 0.000000
	--
	0 1
	O 0.627262 4.551415 0.000000
	H 0.718573 5.141317 0.761699
	H 0.718573 5.141317 -0.761699
}

energy(cbs, corl_wfn='mp2',corl_basis='def2-[TQ]ZVPD', delta_wfn='ccsd(t)', delta_basis='def2-[DT]ZVPD')
--------------------------------------------------------------------------

  Memory set to  46.566 GiB by Python driver.

  //>>>>>>>>>>>>>>>>>>>>>>>>>>>>>>>>>>>//
  //     CBS Setup: custom function    //
  //<<<<<<<<<<<<<<<<<<<<<<<<<<<<<<<<<<<//

    Naive listing of computations required.
             hf / def2-qzvpd               for  HF TOTAL ENERGY
            mp2 / def2-tzvpd               for  MP2 TOTAL ENERGY
            mp2 / def2-qzvpd               for  MP2 TOTAL ENERGY
             hf / def2-tzvpd               for  HF TOTAL ENERGY
             hf / def2-qzvpd               for  HF TOTAL ENERGY
        ccsd(t) / def2-svpd                for  CCSD(T) TOTAL ENERGY
        ccsd(t) / def2-tzvpd               for  CCSD(T) TOTAL ENERGY
            mp2 / def2-svpd                for  MP2 TOTAL ENERGY
            mp2 / def2-tzvpd               for  MP2 TOTAL ENERGY

    Enlightened listing of computations required.
            mp2 / def2-qzvpd               for  MP2 TOTAL ENERGY
        ccsd(t) / def2-svpd                for  CCSD(T) TOTAL ENERGY
        ccsd(t) / def2-tzvpd               for  CCSD(T) TOTAL ENERGY

    Full listing of computations to be obtained (required and bonus).
             hf / def2-qzvpd               for  HF TOTAL ENERGY
            mp2 / def2-qzvpd               for  MP2 TOTAL ENERGY
             hf / def2-svpd                for  HF TOTAL ENERGY
            mp2 / def2-svpd                for  MP2 TOTAL ENERGY
           ccsd / def2-svpd                for  CCSD TOTAL ENERGY
        ccsd(t) / def2-svpd                for  CCSD(T) TOTAL ENERGY
             hf / def2-tzvpd               for  HF TOTAL ENERGY
            mp2 / def2-tzvpd               for  MP2 TOTAL ENERGY
           ccsd / def2-tzvpd               for  CCSD TOTAL ENERGY
        ccsd(t) / def2-tzvpd               for  CCSD(T) TOTAL ENERGY

  //>>>>>>>>>>>>>>>>>>>>>>>>>>>>>>>>>>>//
  // CBS Computation: MP2 / DEF2-QZVPD //
  //<<<<<<<<<<<<<<<<<<<<<<<<<<<<<<<<<<<//

    SCF Algorithm Type (re)set to DF.

*** tstart() called on node75.bme.utexas.edu
*** at Mon Feb 28 03:25:24 2022

   => Loading Basis Set <=

    Name: DEF2-QZVPD
    Role: ORBITAL
    Keyword: BASIS
    atoms 1   entry LA         line  3634 (ECP: line  5113) file /home/jtg2769/poltype/miniconda3/envs/p4env/share/psi4/basis/def2-qzvpd.gbs 
    atoms 2   entry O          line   305 file /home/jtg2769/poltype/miniconda3/envs/p4env/share/psi4/basis/def2-qzvpd.gbs 
    atoms 3-4 entry H          line    14 file /home/jtg2769/poltype/miniconda3/envs/p4env/share/psi4/basis/def2-qzvpd.gbs 

    !!!  WARNING: ECP capability is in beta. Please check occupations closely.  !!!


         ---------------------------------------------------------
                                   SCF
               by Justin Turney, Rob Parrish, Andy Simmonett
                          and Daniel G. A. Smith
                              RHF Reference
                        1 Threads,  47683 MiB Core
         ---------------------------------------------------------

  ==> Geometry <==

    Molecular point group: cs
    Full point group: Cs

    Geometry (in Angstrom), charge = 3, multiplicity = 1:

       Center              X                  Y                   Z               Mass       
    ------------   -----------------  -----------------  -----------------  -----------------
         LA          -0.077575161244    -0.561838699606     0.000000000000   138.906356300000
         O            0.588078838756     4.267158300394     0.000000000000    15.994914619570
         H            0.679389838756     4.857060300394     0.761699000000     1.007825032230
         H            0.679389838756     4.857060300394    -0.761699000000     1.007825032230

  Running in cs symmetry.

  Rotational constants: A =     14.41290  B =      0.04323  C =      0.04310 [cm^-1]
  Rotational constants: A = 432087.76304  B =   1296.03506  C =   1292.16039 [MHz]
  Nuclear repulsion =   20.756909340428660

  Charge       = 3
  Multiplicity = 1
  Electrons    = 18
  Nalpha       = 9
  Nbeta        = 9

  ==> Algorithm <==

  SCF Algorithm Type is DF.
  DIIS enabled.
  MOM disabled.
  Fractional occupation disabled.
  Guess Type is SAD.
  Energy threshold   = 1.00e-08
  Density threshold  = 1.00e-08
  Integral threshold = 0.00e+00

  ==> Primary Basis <==

  Basis Set: DEF2-QZVPD
    Blend: DEF2-QZVPD
    Number of shells: 62
    Number of basis function: 204
    Number of Cartesian functions: 249
    Spherical Harmonics?: true
    Max angular momentum: 4

  Core potential: DEF2-QZVPD
    Number of shells: 4
    Number of ECP primitives: 10
    Number of ECP core electrons: 46
    Max angular momentum: 3

   => Loading Basis Set <=

    Name: (DEF2-QZVPD AUX)
    Role: JKFIT
    Keyword: DF_BASIS_SCF
    atoms 1   entry LA         line  5333 file /home/jtg2769/poltype/miniconda3/envs/p4env/share/psi4/basis/def2-qzvp-jkfit.gbs 
    atoms 2   entry O          line   323 file /home/jtg2769/poltype/miniconda3/envs/p4env/share/psi4/basis/def2-qzvp-jkfit.gbs 
    atoms 3-4 entry H          line    23 file /home/jtg2769/poltype/miniconda3/envs/p4env/share/psi4/basis/def2-qzvp-jkfit.gbs 

  ==> Pre-Iterations <==

   -------------------------------------------------------
    Irrep   Nso     Nmo     Nalpha   Nbeta   Ndocc  Nsocc
   -------------------------------------------------------
     A'       122     122       0       0       0       0
     A"        82      82       0       0       0       0
   -------------------------------------------------------
    Total     204     204       9       9       9       0
   -------------------------------------------------------

  ==> Integral Setup <==

  DFHelper Memory: AOs need 0.112 GiB; user supplied 34.925 GiB. Using in-core AOs.

  ==> MemDFJK: Density-Fitted J/K Matrices <==

    J tasked:                   Yes
    K tasked:                   Yes
    wK tasked:                   No
    OpenMP threads:               1
    Memory [MiB]:             35762
    Algorithm:                 Core
    Schwarz Cutoff:           1E-12
    Mask sparsity (%):       6.3581
    Fitting Condition:        1E-10

   => Auxiliary Basis Set <=

  Basis Set: (DEF2-QZVPD AUX)
    Blend: DEF2-QZVP-JKFIT
    Number of shells: 82
    Number of basis function: 340
    Number of Cartesian functions: 474
    Spherical Harmonics?: true
    Max angular momentum: 6

  Minimum eigenvalue in the overlap matrix is 1.2730298745E-04.
  Using Symmetric Orthogonalization.

  SCF Guess: Superposition of Atomic Densities via on-the-fly atomic UHF.

  ==> Iterations <==

                           Total Energy        Delta E     RMS |[F,P]|

   @DF-RHF iter SAD:  -106.40707933126077   -1.06407e+02   0.00000e+00 
   @DF-RHF iter   1:  -105.86231593868951    5.44763e-01   3.33553e-03 DIIS
   @DF-RHF iter   2:  -105.93565863482326   -7.33427e-02   2.04804e-03 DIIS
   @DF-RHF iter   3:  -105.96337942858986   -2.77208e-02   1.98079e-04 SOSCF, nmicro=5
   @DF-RHF iter   4:  -105.96397567276783   -5.96244e-04   2.61824e-06 SOSCF, nmicro=5
   @DF-RHF iter   5:  -105.96397575740687   -8.46390e-08   3.03003e-08 SOSCF, nmicro=5
   @DF-RHF iter   6:  -105.96397575742677   -1.98952e-11   1.08049e-09 SOSCF, nmicro=conv
  Energy and wave function converged.


  ==> Post-Iterations <==

    Orbital Energies [Eh]
    ---------------------

    Doubly Occupied:                                                      

       1Ap   -20.881604     2Ap    -2.650960     1App   -1.845824  
       3Ap    -1.845776     4Ap    -1.844981     5Ap    -1.662437  
       2App   -1.025333     6Ap    -0.909005     7Ap    -0.827463  

    Virtual:                                                              

       8Ap    -0.644691     3App   -0.644690     4App   -0.643520  
       9Ap    -0.643402    10Ap    -0.642684    11Ap    -0.598202  
       5App   -0.471803    12Ap    -0.471447    13Ap    -0.465976  
      14Ap    -0.310982     6App   -0.307653    15Ap    -0.307631  
       7App   -0.305458    16Ap    -0.304286    17Ap    -0.299150  
      18Ap    -0.267443     8App   -0.267175    19Ap    -0.265071  
       9App   -0.264729    20Ap    -0.264720    21Ap    -0.263328  
      10App   -0.263169    11App   -0.260982    22Ap    -0.259957  
      23Ap    -0.249139    24Ap    -0.187917    25Ap    -0.173748  
      12App   -0.171257    26Ap    -0.155811    27Ap    -0.128869  
      28Ap    -0.124909    13App   -0.124871    14App   -0.118094  
      29Ap    -0.114837    30Ap    -0.102766    15App   -0.064466  
      31Ap    -0.050908    16App   -0.031994    32Ap    -0.002732  
      17App    0.000568    33Ap     0.005106    18App    0.045704  
      34Ap     0.046057    35Ap     0.057008    19App    0.072483  
      36Ap     0.092454    37Ap     0.097832    20App    0.100257  
      38Ap     0.100511    21App    0.100891    39Ap     0.106410  
      40Ap     0.112266    22App    0.126207    41Ap     0.130237  
      23App    0.132794    42Ap     0.141032    24App    0.156306  
      43Ap     0.156307    25App    0.157084    44Ap     0.157505  
      26App    0.157625    45Ap     0.165404    27App    0.189823  
      46Ap     0.195725    47Ap     0.204714    28App    0.232369  
      48Ap     0.257728    49Ap     0.309580    50Ap     0.332900  
      51Ap     0.363108    29App    0.374169    30App    0.444127  
      52Ap     0.461423    31App    0.535802    53Ap     0.535892  
      54Ap     0.545470    32App    0.557925    55Ap     0.581431  
      33App    0.593119    56Ap     0.660900    57Ap     0.759363  
      34App    0.780629    58Ap     0.878594    35App    0.907326  
      59Ap     0.945057    60Ap     1.026867    61Ap     1.026998  
      36App    1.027008    37App    1.028765    62Ap     1.042429  
      63Ap     1.047400    38App    1.048558    64Ap     1.111187  
      39App    1.198698    65Ap     1.241576    40App    1.302501  
      66Ap     1.337413    67Ap     1.416829    68Ap     1.501225  
      41App    1.515066    69Ap     1.785119    70Ap     1.823781  
      42App    1.910422    71Ap     1.938209    43App    2.155531  
      44App    2.163811    72Ap     2.362343    45App    2.367673  
      46App    2.371028    73Ap     2.520727    47App    2.524399  
      48App    2.568289    74Ap     2.608973    75Ap     2.634746  
      76Ap     2.839330    49App    3.052674    77Ap     3.196161  
      50App    3.219854    78Ap     3.472766    79Ap     3.696896  
      80Ap     3.907896    51App    3.919420    81Ap     3.948632  
      52App    4.088093    82Ap     4.213830    83Ap     4.266784  
      84Ap     4.281072    53App    4.421760    54App    4.590987  
      55App    4.843837    85Ap     4.861755    86Ap     5.387866  
      87Ap     5.388443    56App    5.521382    88Ap     5.690308  
      89Ap     5.938367    57App    5.949617    58App    6.050310  
      59App    6.434197    90Ap     6.499054    60App    6.780195  
      91Ap     7.022235    61App    7.174513    92Ap     7.278368  
      62App    7.298468    93Ap     7.404565    63App    7.415413  
      64App    7.488570    94Ap     7.534620    95Ap     7.723746  
      96Ap     7.731462    97Ap     7.824106    65App    7.874408  
      98Ap     7.905442    66App    7.909667    67App    8.028773  
      99Ap     8.141686    68App    8.363986   100Ap     8.595311  
      69App    8.662091    70App    8.819933   101Ap     8.834595  
     102Ap     9.095062    71App    9.184386   103Ap    10.009026  
     104Ap    10.020909   105Ap    10.410942    72App   10.451701  
      73App   10.876209   106Ap    10.916916   107Ap    11.057241  
      74App   11.127138    75App   11.315695   108Ap    11.357509  
     109Ap    11.434940    76App   11.440204   110Ap    11.555758  
     111Ap    11.563667   112Ap    11.744634   113Ap    11.970181  
     114Ap    11.996782    77App   12.048759    78App   12.109133  
     115Ap    12.513615    79App   13.096260    80App   13.675607  
     116Ap    13.880738   117Ap    13.887799    81App   14.274680  
     118Ap    14.663306   119Ap    16.922532    82App   16.985139  
     120Ap    32.867853   121Ap    49.321111   122Ap   256.460883  

    Final Occupation by Irrep:
             Ap   App 
    DOCC [     7,    2 ]

  @DF-RHF Final Energy:  -105.96397575742677

   => Energetics <=

    Nuclear Repulsion Energy =             20.7569093404286598
    One-Electron Energy =                -186.4550080793206064
    Two-Electron Energy =                  59.7341229814651840
    Total Energy =                       -105.9639757574267662

Computation Completed


Properties will be evaluated at   0.000000,   0.000000,   0.000000 [a0]

Properties computed using the SCF density matrix

  Nuclear Dipole Moment: [e a0]
     X:     9.8456      Y:    71.1882      Z:     0.0000

  Electronic Dipole Moment: [e a0]
     X:   -10.1174      Y:   -73.2525      Z:     0.0000

  Dipole Moment: [e a0]
     X:    -0.2718      Y:    -2.0644      Z:     0.0000     Total:     2.0822

  Dipole Moment: [D]
     X:    -0.6908      Y:    -5.2471      Z:     0.0000     Total:     5.2924


*** tstop() called on node75.bme.utexas.edu at Mon Feb 28 03:25:37 2022
Module time:
	user time   =      12.70 seconds =       0.21 minutes
	system time =       0.07 seconds =       0.00 minutes
	total time  =         13 seconds =       0.22 minutes
Total time:
	user time   =      12.70 seconds =       0.21 minutes
	system time =       0.07 seconds =       0.00 minutes
	total time  =         13 seconds =       0.22 minutes

*** tstart() called on node75.bme.utexas.edu
*** at Mon Feb 28 03:25:37 2022


  //>>>>>>>>>>>>>>>>>>>>>>>>>>>>>>>>>>>//
  //               DFMP2               //
  //<<<<<<<<<<<<<<<<<<<<<<<<<<<<<<<<<<<//

   => Loading Basis Set <=

    Name: (DEF2-QZVPD AUX)
    Role: RIFIT
    Keyword: DF_BASIS_MP2
    atoms 1   entry LA         line  5314 file /home/jtg2769/poltype/miniconda3/envs/p4env/share/psi4/basis/def2-qzvpp-ri.gbs 
    atoms 2   entry O          line   406 file /home/jtg2769/poltype/miniconda3/envs/p4env/share/psi4/basis/def2-qzvpp-ri.gbs 
    atoms 3-4 entry H          line    24 file /home/jtg2769/poltype/miniconda3/envs/p4env/share/psi4/basis/def2-qzvpp-ri.gbs 

	 --------------------------------------------------------
	                          DF-MP2                         
	      2nd-Order Density-Fitted Moller-Plesset Theory     
	              RMP2 Wavefunction,   1 Threads             
	                                                         
	        Rob Parrish, Justin Turney, Andy Simmonett,      
	           Ed Hohenstein, and C. David Sherrill          
	 --------------------------------------------------------

   => Auxiliary Basis Set <=

  Basis Set: (DEF2-QZVPD AUX)
    Blend: DEF2-QZVPP-RI
    Number of shells: 111
    Number of basis function: 505
    Number of Cartesian functions: 724
    Spherical Harmonics?: true
    Max angular momentum: 6

	 --------------------------------------------------------
	                 NBF =   204, NAUX =   505
	 --------------------------------------------------------
	   CLASS    FOCC     OCC    AOCC    AVIR     VIR    FVIR
	   PAIRS       0       9       9     195     195       0
	 --------------------------------------------------------

	-----------------------------------------------------------
	 ==================> DF-MP2 Energies <==================== 
	-----------------------------------------------------------
	 Reference Energy          =    -105.9639757574267662 [Eh]
	 Singles Energy            =      -0.0000000000000000 [Eh]
	 Same-Spin Energy          =      -0.1094911695999875 [Eh]
	 Opposite-Spin Energy      =      -0.3572846134946540 [Eh]
	 Correlation Energy        =      -0.4667757830946415 [Eh]
	 Total Energy              =    -106.4307515405214133 [Eh]
	-----------------------------------------------------------
	 ================> DF-SCS-MP2 Energies <================== 
	-----------------------------------------------------------
	 SCS Same-Spin Scale       =       0.3333333333333333 [-]
	 SCS Opposite-Spin Scale   =       1.2000000000000000 [-]
	 SCS Same-Spin Energy      =      -0.0364970565333292 [Eh]
	 SCS Opposite-Spin Energy  =      -0.4287415361935847 [Eh]
	 SCS Correlation Energy    =      -0.4652385927269139 [Eh]
	 SCS Total Energy          =    -106.4292143501536856 [Eh]
	-----------------------------------------------------------


*** tstop() called on node75.bme.utexas.edu at Mon Feb 28 03:25:38 2022
Module time:
	user time   =       1.49 seconds =       0.02 minutes
	system time =       0.04 seconds =       0.00 minutes
	total time  =          1 seconds =       0.02 minutes
Total time:
	user time   =      14.19 seconds =       0.24 minutes
	system time =       0.11 seconds =       0.00 minutes
	total time  =         14 seconds =       0.23 minutes

  //>>>>>>>>>>>>>>>>>>>>>>>>>>>>>>>>>>>>>>//
  // CBS Computation: CCSD(T) / DEF2-SVPD //
  //<<<<<<<<<<<<<<<<<<<<<<<<<<<<<<<<<<<<<<//


*** tstart() called on node75.bme.utexas.edu
*** at Mon Feb 28 03:25:38 2022

   => Loading Basis Set <=

    Name: DEF2-SVPD
    Role: ORBITAL
    Keyword: BASIS
    atoms 1   entry LA         line  2014 (ECP: line  3140) file /home/jtg2769/poltype/miniconda3/envs/p4env/share/psi4/basis/def2-svpd.gbs 
    atoms 2   entry O          line   149 file /home/jtg2769/poltype/miniconda3/envs/p4env/share/psi4/basis/def2-svpd.gbs 
    atoms 3-4 entry H          line    14 file /home/jtg2769/poltype/miniconda3/envs/p4env/share/psi4/basis/def2-svpd.gbs 

    !!!  WARNING: ECP capability is in beta. Please check occupations closely.  !!!


         ---------------------------------------------------------
                                   SCF
               by Justin Turney, Rob Parrish, Andy Simmonett
                          and Daniel G. A. Smith
                              RHF Reference
                        1 Threads,  47683 MiB Core
         ---------------------------------------------------------

  ==> Geometry <==

    Molecular point group: cs
    Full point group: Cs

    Geometry (in Angstrom), charge = 3, multiplicity = 1:

       Center              X                  Y                   Z               Mass       
    ------------   -----------------  -----------------  -----------------  -----------------
         LA          -0.077575161244    -0.561838699606     0.000000000000   138.906356300000
         O            0.588078838756     4.267158300394     0.000000000000    15.994914619570
         H            0.679389838756     4.857060300394     0.761699000000     1.007825032230
         H            0.679389838756     4.857060300394    -0.761699000000     1.007825032230

  Running in cs symmetry.

  Rotational constants: A =     14.41290  B =      0.04323  C =      0.04310 [cm^-1]
  Rotational constants: A = 432087.76304  B =   1296.03506  C =   1292.16039 [MHz]
  Nuclear repulsion =   20.756909340428660

  Charge       = 3
  Multiplicity = 1
  Electrons    = 18
  Nalpha       = 9
  Nbeta        = 9

  ==> Algorithm <==

  SCF Algorithm Type is PK.
  DIIS enabled.
  MOM disabled.
  Fractional occupation disabled.
  Guess Type is SAD.
  Energy threshold   = 1.00e-08
  Density threshold  = 1.00e-08
  Integral threshold = 0.00e+00

  ==> Primary Basis <==

  Basis Set: DEF2-SVPD
    Blend: DEF2-SVPD
    Number of shells: 30
    Number of basis function: 74
    Number of Cartesian functions: 81
    Spherical Harmonics?: true
    Max angular momentum: 3

  Core potential: DEF2-SVPD
    Number of shells: 4
    Number of ECP primitives: 10
    Number of ECP core electrons: 46
    Max angular momentum: 3

  ==> Pre-Iterations <==

   -------------------------------------------------------
    Irrep   Nso     Nmo     Nalpha   Nbeta   Ndocc  Nsocc
   -------------------------------------------------------
     A'        48      48       0       0       0       0
     A"        26      26       0       0       0       0
   -------------------------------------------------------
    Total      74      74       9       9       9       0
   -------------------------------------------------------

  ==> Integral Setup <==

  Using in-core PK algorithm.
   Calculation information:
      Number of atoms:                   4
      Number of AO shells:              30
      Number of primitives:             47
      Number of atomic orbitals:        81
      Number of basis functions:        74

      Integral cutoff                 1.00e-12
      Number of threads:                 1

  Performing in-core PK
  Using 7703400 doubles for integral storage.
  We computed 96640 shell quartets total.
  Whereas there are 108345 unique shell quartets.

  ==> DiskJK: Disk-Based J/K Matrices <==

    J tasked:                  Yes
    K tasked:                  Yes
    wK tasked:                  No
    Memory [MiB]:            35762
    Schwarz Cutoff:          1E-12

    OpenMP threads:              1

  Minimum eigenvalue in the overlap matrix is 5.2073073242E-03.
  Using Symmetric Orthogonalization.

  SCF Guess: Superposition of Atomic Densities via on-the-fly atomic UHF.

  ==> Iterations <==

                        Total Energy        Delta E     RMS |[F,P]|

   @RHF iter SAD:  -106.39983631524912   -1.06400e+02   0.00000e+00 
   @RHF iter   1:  -105.79557353960928    6.04263e-01   7.72760e-03 DIIS
   @RHF iter   2:  -105.84695656721846   -5.13830e-02   4.72633e-03 DIIS
   @RHF iter   3:  -105.87050689139896   -2.35503e-02   4.35577e-04 SOSCF, nmicro=5
   @RHF iter   4:  -105.87095032835232   -4.43437e-04   4.12429e-06 SOSCF, nmicro=5
   @RHF iter   5:  -105.87095036483565   -3.64833e-08   5.75311e-08 SOSCF, nmicro=5
   @RHF iter   6:  -105.87095036484612   -1.04734e-11   1.28520e-09 SOSCF, nmicro=conv
  Energy and wave function converged.


  ==> Post-Iterations <==

    Orbital Energies [Eh]
    ---------------------

    Doubly Occupied:                                                      

       1Ap   -20.887834     2Ap    -2.652567     1App   -1.847029  
       3Ap    -1.846980     4Ap    -1.846168     5Ap    -1.646286  
       2App   -1.029225     6Ap    -0.910859     7Ap    -0.829627  

    Virtual:                                                              

       8Ap    -0.645382     3App   -0.645381     4App   -0.644197  
       9Ap    -0.644078    10Ap    -0.643353    11Ap    -0.597314  
       5App   -0.466910    12Ap    -0.466544    13Ap    -0.460830  
      14Ap    -0.309206     6App   -0.301768    15Ap    -0.301761  
       7App   -0.299260    16Ap    -0.297945    17Ap    -0.290085  
       8App   -0.256865    18Ap    -0.255991    19Ap    -0.250112  
      20Ap    -0.163575     9App   -0.148878    21Ap    -0.130857  
      22Ap    -0.116098    10App   -0.069636    23Ap    -0.069635  
      11App   -0.068996    24Ap    -0.068650    12App   -0.068646  
      25Ap    -0.061354    13App   -0.021228    26Ap    -0.021010  
      27Ap     0.015984    14App    0.047042    28Ap     0.083580  
      29Ap     0.101663    15App    0.159330    30Ap     0.164984  
      16App    0.185363    31Ap     0.191954    32Ap     0.213113  
      17App    0.238304    33Ap     0.298986    18App    0.329832  
      34Ap     0.362865    35Ap     0.376730    19App    0.438478  
      36Ap     0.448808    37Ap     0.833511    20App    0.941115  
      38Ap     1.172994    39Ap     1.174830    21App    1.464292  
      40Ap     1.596320    22App    1.606007    41Ap     1.770274  
      42Ap     1.890297    23App    1.905721    24App    2.258380  
      43Ap     2.377031    44Ap     3.049767    25App    3.107598  
      45Ap     3.263761    46Ap     3.694634    26App    4.121926  
      47Ap    10.824917    48Ap    32.851918  

    Final Occupation by Irrep:
             Ap   App 
    DOCC [     7,    2 ]

  @RHF Final Energy:  -105.87095036484612

   => Energetics <=

    Nuclear Repulsion Energy =             20.7569093404286598
    One-Electron Energy =                -186.2625708682704158
    Two-Electron Energy =                  59.6347111629956430
    Total Energy =                       -105.8709503648461236

Computation Completed


Properties will be evaluated at   0.000000,   0.000000,   0.000000 [a0]

Properties computed using the SCF density matrix

  Nuclear Dipole Moment: [e a0]
     X:     9.8456      Y:    71.1882      Z:     0.0000

  Electronic Dipole Moment: [e a0]
     X:   -10.1162      Y:   -73.2463      Z:     0.0000

  Dipole Moment: [e a0]
     X:    -0.2706      Y:    -2.0581      Z:     0.0000     Total:     2.0758

  Dipole Moment: [D]
     X:    -0.6877      Y:    -5.2312      Z:     0.0000     Total:     5.2762


*** tstop() called on node75.bme.utexas.edu at Mon Feb 28 03:25:41 2022
Module time:
	user time   =       3.00 seconds =       0.05 minutes
	system time =       0.02 seconds =       0.00 minutes
	total time  =          3 seconds =       0.05 minutes
Total time:
	user time   =      17.20 seconds =       0.29 minutes
	system time =       0.13 seconds =       0.00 minutes
	total time  =         17 seconds =       0.28 minutes
 MINTS: Wrapper to libmints.
   by Justin Turney

   Calculation information:
      Number of threads:                 1
      Number of atoms:                   4
      Number of AO shells:              30
      Number of SO shells:              26
      Number of primitives:             47
      Number of atomic orbitals:        81
      Number of basis functions:        74

      Number of irreps:                  2
      Integral cutoff                 0.00e+00
      Number of functions per irrep: [  48   26 ]

 OEINTS: Overlap, kinetic, potential, dipole, and quadrupole integrals
         stored in file 35.

      Computing two-electron integrals...done
      Computed 1869012 non-zero two-electron integrals.
        Stored in file 33.


*** tstart() called on node75.bme.utexas.edu
*** at Mon Feb 28 03:25:43 2022


	Wfn Parameters:
	--------------------
	Wavefunction         = CCSD_T
	Number of irreps     = 2
	Number of MOs        = 74
	Number of active MOs = 74
	AO-Basis             = NONE
	Semicanonical        = false
	Reference            = RHF
	Print Level          = 1

	IRREP	# MOs	# FZDC	# DOCC	# SOCC	# VIRT	# FZVR
	-----	-----	------	------	------	------	------
	 Ap	   48	    0	    7	    0	    41	    0
	 App	   26	    0	    2	    0	    24	    0
	Transforming integrals...
	IWL integrals will be deleted.
	(OO|OO)...
	Presorting SO-basis two-electron integrals.
	Sorting File: SO Ints (nn|nn) nbuckets = 1
	Transforming the one-electron integrals and constructing Fock matrices
	Starting first half-transformation.
	Sorting half-transformed integrals.
	First half integral transformation complete.
	Starting second half-transformation.
	Two-electron integral transformation complete.
	(OO|OV)...
	Starting second half-transformation.
	Two-electron integral transformation complete.
	(OO|VV)...
	Starting second half-transformation.
	Two-electron integral transformation complete.
	(OV|OO)...
	Starting first half-transformation.
	Sorting half-transformed integrals.
	First half integral transformation complete.
	Starting second half-transformation.
	Two-electron integral transformation complete.
	(OV|OV)...
	Starting second half-transformation.
	Two-electron integral transformation complete.
	(OV|VV)...
	Starting second half-transformation.
	Two-electron integral transformation complete.
	(VV|OO)...
	Starting first half-transformation.
	Sorting half-transformed integrals.
	First half integral transformation complete.
	Starting second half-transformation.
	Two-electron integral transformation complete.
	(VV|OV)...
	Starting second half-transformation.
	Two-electron integral transformation complete.
	(VV|VV)...
	Starting second half-transformation.
	Two-electron integral transformation complete.
	Frozen core energy     =      0.00000000000000

	Size of irrep 0 of <ab|cd> integrals:      5.094 (MW) /     40.752 (MB)
	Size of irrep 1 of <ab|cd> integrals:      3.873 (MW) /     30.984 (MB)
	Total:                                     8.967 (MW) /     71.737 (MB)

	Size of irrep 0 of <ia|bc> integrals:      0.756 (MW) /      6.049 (MB)
	Size of irrep 1 of <ia|bc> integrals:      0.492 (MW) /      3.936 (MB)
	Total:                                     1.248 (MW) /      9.985 (MB)

	Size of irrep 0 of tijab amplitudes:       0.120 (MW) /      0.957 (MB)
	Size of irrep 1 of tijab amplitudes:       0.055 (MW) /      0.441 (MB)
	Total:                                     0.175 (MW) /      1.398 (MB)

	Nuclear Rep. energy          =     20.75690934042866
	SCF energy                   =   -105.87095036484612
	One-electron energy          =   -186.26257116266876
	Two-electron energy          =     59.63471145739278
	Reference energy             =   -105.87095036484732

*** tstop() called on node75.bme.utexas.edu at Mon Feb 28 03:25:45 2022
Module time:
	user time   =       0.76 seconds =       0.01 minutes
	system time =       0.42 seconds =       0.01 minutes
	total time  =          2 seconds =       0.03 minutes
Total time:
	user time   =      19.08 seconds =       0.32 minutes
	system time =       0.58 seconds =       0.01 minutes
	total time  =         21 seconds =       0.35 minutes
            **************************
            *                        *
            *        CCENERGY        *
            *                        *
            **************************

    Nuclear Rep. energy (wfn)     =   20.756909340428660
    SCF energy          (wfn)     = -105.870950364846124
    Reference energy    (file100) = -105.870950364847317

    Input parameters:
    -----------------
    Wave function   =     CCSD_T
    Reference wfn   =     RHF
    Brueckner       =     No
    Memory (Mbytes) =     50000.0
    Maxiter         =     50
    R_Convergence   =     1.0e-07
    E_Convergence   =     1.0e-06
    Restart         =     Yes
    DIIS            =     Yes
    AO Basis        =     NONE
    ABCD            =     NEW
    Cache Level     =     2
    Cache Type      =     LOW
    Print Level     =     1
    Num. of threads =     1
    # Amps to Print =     10
    Print MP2 Amps? =     No
    Analyze T2 Amps =     No
    Print Pair Ener =     No
    Local CC        =     No
    SCS-MP2         =     False
    SCSN-MP2        =     False
    SCS-CCSD        =     False

MP2 correlation energy -0.2920180416034783
                Solving CC Amplitude Equations
                ------------------------------
  Iter             Energy              RMS        T1Diag      D1Diag    New D1Diag    D2Diag
  ----     ---------------------    ---------   ----------  ----------  ----------   --------
     0        -0.292018041603478    0.000e+00    0.000000    0.000000    0.000000    0.112626
     1        -0.299223105685631    4.444e-02    0.007744    0.021369    0.021369    0.117452
     2        -0.304548941606828    1.513e-02    0.007844    0.021223    0.021223    0.121980
     3        -0.305861026520245    1.160e-02    0.009007    0.024780    0.024780    0.123555
     4        -0.306201442338171    7.455e-03    0.009637    0.026742    0.026742    0.124161
     5        -0.306229198155732    5.170e-03    0.010109    0.028359    0.028359    0.124421
     6        -0.306197334673120    4.635e-03    0.010567    0.030087    0.030087    0.124512
     7        -0.306196660533294    3.594e-03    0.010754    0.030832    0.030832    0.124524
     8        -0.306210236039499    3.334e-03    0.011221    0.032827    0.032827    0.124525
     9        -0.306215373447779    3.302e-03    0.012115    0.037004    0.037004    0.124490
    10        -0.306224155519997    3.075e-03    0.012513    0.039092    0.039092    0.124485
    11        -0.306170929109709    2.938e-03    0.013415    0.043486    0.043486    0.124415
    12        -0.306197516397108    2.752e-03    0.014556    0.049776    0.049776    0.124466
    13        -0.306201056164201    2.812e-03    0.015941    0.056920    0.056920    0.124515
    14        -0.306199164065429    2.757e-03    0.022134    0.086718    0.086718    0.124599
    15        -0.306211203864923    3.836e-03    0.023493    0.092887    0.092887    0.124669
    16        -0.306292742204423    3.998e-03    0.030087    0.122006    0.122006    0.124997
    17        -0.306339131598275    9.299e-03    0.031596    0.128687    0.128687    0.125157
    18        -0.306388562259024    7.071e-03    0.036426    0.149937    0.149937    0.125433
    19        -0.306445056312505    1.052e-02    0.037763    0.155930    0.155930    0.125588
    20        -0.306445629270863    3.310e-03    0.043267    0.180040    0.180040    0.126788
    21        -0.306442311881641    1.004e-02    0.041552    0.172669    0.172669    0.126220
    22        -0.306437326193480    1.059e-03    0.043180    0.179749    0.179749    0.127207
    23        -0.306442466571677    1.244e-03    0.043727    0.182079    0.182079    0.127545
    24        -0.306429786010814    1.357e-03    0.042732    0.177766    0.177766    0.126983
    25        -0.306425815695905    5.955e-04    0.044187    0.184018    0.184018    0.127890
    26        -0.306426019971271    3.743e-04    0.044930    0.187207    0.187207    0.128380
    27        -0.306429332114572    3.001e-04    0.045643    0.190264    0.190264    0.128872
    28        -0.306435257721917    2.761e-04    0.046178    0.192560    0.192560    0.129270
    29        -0.306437275330154    1.495e-04    0.046121    0.192322    0.192322    0.129239
    30        -0.306441039508533    1.612e-04    0.046350    0.193309    0.193309    0.129413
    31        -0.306442018561287    1.192e-04    0.046584    0.194314    0.194314    0.129579
    32        -0.306442695714415    1.240e-04    0.046707    0.194846    0.194846    0.129670
    33        -0.306442280522665    1.184e-04    0.046628    0.194507    0.194507    0.129615
    34        -0.306441754176804    1.136e-04    0.046624    0.194491    0.194491    0.129612
    35        -0.306440270368312    1.130e-04    0.046603    0.194403    0.194403    0.129594
    36        -0.306440825543395    1.070e-04    0.046662    0.194656    0.194656    0.129637
    37        -0.306440778720638    1.106e-04    0.046719    0.194909    0.194909    0.129681
    38        -0.306439633836673    1.047e-04    0.046581    0.194316    0.194316    0.129579
    39        -0.306440812312816    1.023e-04    0.046729    0.194957    0.194957    0.129694
    40        -0.306442495192252    9.900e-05    0.046922    0.195797    0.195797    0.129845
    41        -0.306441291010755    1.129e-04    0.046885    0.195639    0.195639    0.129814
    42        -0.306443243640463    7.772e-05    0.046963    0.195980    0.195980    0.129885
    43        -0.306442116000472    6.775e-05    0.046921    0.195796    0.195796    0.129849
    44        -0.306442829497389    7.140e-05    0.047011    0.196187    0.196187    0.129923
    45        -0.306442621010321    6.093e-05    0.046991    0.196103    0.196103    0.129907
    46        -0.306442621918931    4.143e-05    0.047001    0.196146    0.196146    0.129917
    47        -0.306442357705481    2.943e-05    0.046986    0.196080    0.196080    0.129906
    48        -0.306442451129726    3.191e-05    0.047003    0.196154    0.196154    0.129919
    49        -0.306442313126455    2.190e-05    0.046992    0.196107    0.196107    0.129911
    50        -0.306442307893092    1.649e-05    0.047002    0.196150    0.196150    0.129918

     ** Wave function not converged to 1.0e-07 ** 

Traceback (most recent call last):
  File "/home/jtg2769/poltype/miniconda3/envs/p4env/bin/psi4", line 289, in <module>
    exec(content)
  File "<string>", line 33, in <module>
  File "/home/jtg2769/poltype/miniconda3/envs/p4env/lib//python3.7/site-packages/psi4/driver/driver.py", line 503, in energy
    return name(energy, kwargs.pop('label', 'custom function'), ptype='energy', **kwargs)
  File "/home/jtg2769/poltype/miniconda3/envs/p4env/lib//python3.7/site-packages/psi4/driver/driver_cbs.py", line 1599, in cbs
    response = func(molecule=molecule, **kwargs)
  File "/home/jtg2769/poltype/miniconda3/envs/p4env/lib//python3.7/site-packages/psi4/driver/driver.py", line 561, in energy
    wfn = procedures['energy'][lowername](lowername, molecule=molecule, **kwargs)
  File "/home/jtg2769/poltype/miniconda3/envs/p4env/lib//python3.7/site-packages/psi4/driver/procrouting/proc.py", line 858, in select_ccsd_t_
    return func(name, **kwargs)
  File "/home/jtg2769/poltype/miniconda3/envs/p4env/lib//python3.7/site-packages/psi4/driver/procrouting/proc.py", line 2408, in run_ccenergy
    ccwfn = core.ccenergy(ref_wfn)

RuntimeError: 
Fatal Error: Timer ccenergy is not on.
Error occurred in file: /scratch/psilocaluser/conda-builds/psi4-multiout_1563819946209/work/psi4/src/psi4/libqt/timer.cc on line: 1143
The most recent 5 function calls were:

psi::timer_off(std::__cxx11::basic_string<char, std::char_traits<char>, std::allocator<char> > const&)



Printing out the relevant lines from the Psithon --> Python processed input file:
    	O 0.627262 4.551415 0.000000
    	H 0.718573 5.141317 0.761699
    	H 0.718573 5.141317 -0.761699
    """)
    core.IO.set_default_namespace("")
--> energy(cbs, corl_wfn='mp2',corl_basis='def2-[TQ]ZVPD', delta_wfn='ccsd(t)', delta_basis='def2-[DT]ZVPD')

    Psi4 stopped on: Monday, 28 February 2022 03:26AM
    Psi4 wall time for execution: 0:01:02.08

*** Psi4 encountered an error. Buy a developer more coffee!
*** Resources and help at github.com/psi4/psi4.
